HOOMD-blue 2.5.2 CUDA (10.1) DOUBLE HPMC_MIXED MPI SSE SSE2 SSE3 SSE4_1 SSE4_2 AVX 
Compiled: 06/04/2019
Copyright (c) 2009-2019 The Regents of the University of Michigan.
-----
You are using HOOMD-blue. Please cite the following:
* J A Anderson, C D Lorenz, and A Travesset. "General purpose molecular dynamics
  simulations fully implemented on graphics processing units", Journal of
  Computational Physics 227 (2008) 5342--5359
* J Glaser, T D Nguyen, J A Anderson, P Liu, F Spiga, J A Millan, D C Morse, and
  S C Glotzer. "Strong scaling of general-purpose molecular dynamics simulations
  on GPUs", Computer Physics Communications 192 (2015) 97--107
-----
HOOMD-blue is running on the following GPU(s):
 [0]      GeForce RTX 2060  30 SM_7.5 @ 1.68 GHz, 5933 MiB DRAM, MNG
hoomd_simulation.py:112  |      hoomd.init.read_snapshot(snapshot)
notice(2): Group "all" created containing 6000 particles
hoomd_simulation.py:114  |      nl = hoomd.md.nlist.cell()
hoomd_simulation.py:115  |      nl.reset_exclusions(exclusions=['1-2', '1-3'])
notice(2): -- Neighborlist exclusion statistics -- :
notice(2): Particles with 2 exclusions             : 6000
notice(2): Neighbors included by diameter          : no
notice(2): Neighbors excluded when in the same body: no
Processing LJ and QQ
hoomd_simulation.py:165  |      lj = hoomd.md.pair.lj(r_cut, nl)
hoomd_simulation.py:167  |          lj.pair_coeff.set(name, name,
                sigma=atom_type.sigma/ref_distance,
                epsilon=atom_type.epsilon/ref_energy)
hoomd_simulation.py:167  |          lj.pair_coeff.set(name, name,
                sigma=atom_type.sigma/ref_distance,
                epsilon=atom_type.epsilon/ref_energy)
hoomd_simulation.py:167  |          lj.pair_coeff.set(name, name,
                sigma=atom_type.sigma/ref_distance,
                epsilon=atom_type.epsilon/ref_energy)
hoomd_simulation.py:199  |          lj.pair_coeff.set(a1, a2, sigma=sigma, epsilon=epsilon)
hoomd_simulation.py:199  |          lj.pair_coeff.set(a1, a2, sigma=sigma, epsilon=epsilon)
hoomd_simulation.py:199  |          lj.pair_coeff.set(a1, a2, sigma=sigma, epsilon=epsilon)
hoomd_simulation.py:199  |          lj.pair_coeff.set(a1, a2, sigma=sigma, epsilon=epsilon)
hoomd_simulation.py:199  |          lj.pair_coeff.set(a1, a2, sigma=sigma, epsilon=epsilon)
hoomd_simulation.py:199  |          lj.pair_coeff.set(a1, a2, sigma=sigma, epsilon=epsilon)
hoomd_simulation.py:205  |      charged = hoomd.group.charged()
notice(2): Group "charged" created containing 6000 particles
hoomd_simulation.py:210  |          qq = hoomd.md.charge.pppm(charged, nl)
-----
You are using PPPM. Please cite the following:
* D N LeBard, B G Levine, S A Barr, A Jusufi, S Sanders, M L Klein, and A Z
  Panagiotopoulos. "Self-assembly of coarse-grained ionic surfactants
  accelerated by graphics processing units", Journal of Computational Physics 8
  (2012) 2385-2397
-----
hoomd_simulation.py:211  |          qq.set_params(Nx, Ny, Nz, order, r_cut)
Processing harmonic bonds
hoomd_simulation.py:266  |      harmonic_bond = hoomd.md.bond.harmonic()
hoomd_simulation.py:275  |              harmonic_bond.bond_coeff.set(name,
                k=2 * bond_type.k * ref_distance**2 / ref_energy,
                r0=bond_type.req / ref_distance)
hoomd_simulation.py:275  |              harmonic_bond.bond_coeff.set(name,
                k=2 * bond_type.k * ref_distance**2 / ref_energy,
                r0=bond_type.req / ref_distance)
Processing harmonic angles
hoomd_simulation.py:293  |      harmonic_angle = hoomd.md.angle.harmonic()
hoomd_simulation.py:295  |          harmonic_angle.angle_coeff.set(name,
                t0=np.deg2rad(angle_type.theteq),
                k=2 * angle_type.k / ref_energy)
HOOMD SimulationContext updated from ParmEd Structure
alex.py:093  |  nl = hoomd.md.nlist.cell()
alex.py:094  |  nl.reset_exclusions(['1-2', '1-3', '1-4'])
notice(2): -- Neighborlist exclusion statistics -- :
notice(2): Particles with 2 exclusions             : 6000
notice(2): Neighbors included by diameter          : no
notice(2): Neighbors excluded when in the same body: no
alex.py:096  |  all = hoomd.group.all()
alex.py:105  |  md.integrate.mode_standard(dt=0.002)
alex.py:106  |  nvt = md.integrate.nvt(group=all, kT=2.7022, tau=1)
alex.py:107  |  hoomd.analyze.log(filename="analyze2.log",
                  quantities=['temperature', 'potential_energy','kinetic_energy', 'bond_harmonic_energy', 'pppm_energy', 'pair_lj_energy', 'angle_harmonic_energy','volume', 'pressure'],
                  period=100,
                  overwrite=True)
alex.py:111  |  dump = hoomd.dump.dcd('nvt.dcd', period = 100, overwrite = True)
alex.py:112  |  hoomd.run(1e5)
** starting run **
/home/arjunban/installs/mbuild/mbuild/compound.py:2410: UserWarning: Guessing that "<_CH3 pos=( 6.8756, 1.1424, 7.0081), 0 bonds, id: 140266842751608>" is element: "EP"
  atom, element))
/home/arjunban/.conda/envs/mosdef36/lib/python3.6/site-packages/foyer/forcefield.py:395: UserWarning: Non-atomistic element type detected. Creating custom element for _CH4
  'Creating custom element for {}'.format(element))
/home/arjunban/.conda/envs/mosdef36/lib/python3.6/site-packages/foyer/forcefield.py:395: UserWarning: Non-atomistic element type detected. Creating custom element for _CH3
  'Creating custom element for {}'.format(element))
/home/arjunban/.conda/envs/mosdef36/lib/python3.6/site-packages/foyer/forcefield.py:395: UserWarning: Non-atomistic element type detected. Creating custom element for _CH2
  'Creating custom element for {}'.format(element))
/home/arjunban/.conda/envs/mosdef36/lib/python3.6/site-packages/foyer/forcefield.py:395: UserWarning: Non-atomistic element type detected. Creating custom element for _HC
  'Creating custom element for {}'.format(element))
/home/arjunban/installs/mbuild/mbuild/utils/decorators.py:21: Warning: write_hoomdxml has breaking change. See PR#463 on github
  warn(printed_message, Warning)
*Warning*: charge.pppm: system is not neutral and unscreened interactions are calculated, the net charge is 0.00143051
*Warning*: charge.pppm: RMS error of 37.4012 is probably too high! 37.4004 37.4012
Time 00:00:10 | Step 1605 / 100000 | TPS 160.484 | ETA 00:10:13
Time 00:00:20 | Step 3575 / 100000 | TPS 196.968 | ETA 00:08:09
Time 00:00:30 | Step 4692 / 100000 | TPS 111.481 | ETA 00:14:14
Time 00:00:40 | Step 5555 / 100000 | TPS 86.247 | ETA 00:18:15
Time 00:00:50 | Step 6430 / 100000 | TPS 87.4197 | ETA 00:17:50
Time 00:01:00 | Step 7309 / 100000 | TPS 87.8087 | ETA 00:17:35
Time 00:01:10 | Step 8178 / 100000 | TPS 86.8435 | ETA 00:17:37
Time 00:01:20 | Step 9017 / 100000 | TPS 83.8069 | ETA 00:18:05
Time 00:01:30 | Step 9867 / 100000 | TPS 84.9013 | ETA 00:17:41
Time 00:01:40 | Step 10651 / 100000 | TPS 78.3682 | ETA 00:19:00
Time 00:01:50 | Step 11315 / 100000 | TPS 66.3211 | ETA 00:22:17
Time 00:02:00 | Step 11985 / 100000 | TPS 66.9873 | ETA 00:21:53
Time 00:02:10 | Step 12667 / 100000 | TPS 68.1523 | ETA 00:21:21
Time 00:02:20 | Step 13339 / 100000 | TPS 67.1901 | ETA 00:21:29
Time 00:02:30 | Step 13998 / 100000 | TPS 65.8614 | ETA 00:21:45
Time 00:02:40 | Step 14628 / 100000 | TPS 62.9227 | ETA 00:22:36
Time 00:02:50 | Step 15267 / 100000 | TPS 63.8618 | ETA 00:22:06
Time 00:03:00 | Step 15895 / 100000 | TPS 62.7091 | ETA 00:22:21
Time 00:03:10 | Step 16501 / 100000 | TPS 60.5373 | ETA 00:22:59
Time 00:03:20 | Step 17095 / 100000 | TPS 59.3785 | ETA 00:23:16
Time 00:03:30 | Step 17676 / 100000 | TPS 57.9966 | ETA 00:23:39
Time 00:03:40 | Step 18236 / 100000 | TPS 55.9467 | ETA 00:24:21
Time 00:03:50 | Step 18805 / 100000 | TPS 56.8501 | ETA 00:23:48
Time 00:04:00 | Step 19365 / 100000 | TPS 55.9268 | ETA 00:24:01
Time 00:04:10 | Step 19925 / 100000 | TPS 55.9787 | ETA 00:23:50
Time 00:04:20 | Step 20475 / 100000 | TPS 54.9122 | ETA 00:24:08
Time 00:04:30 | Step 21016 / 100000 | TPS 54.0865 | ETA 00:24:20
Time 00:04:40 | Step 21560 / 100000 | TPS 54.3359 | ETA 00:24:03
Time 00:04:50 | Step 22083 / 100000 | TPS 52.2594 | ETA 00:24:50
Time 00:05:00 | Step 22612 / 100000 | TPS 52.8422 | ETA 00:24:24
Time 00:05:10 | Step 23134 / 100000 | TPS 52.1374 | ETA 00:24:34
Time 00:05:20 | Step 23659 / 100000 | TPS 52.4163 | ETA 00:24:16
Time 00:05:30 | Step 24184 / 100000 | TPS 52.4381 | ETA 00:24:05
Time 00:05:40 | Step 24711 / 100000 | TPS 52.6633 | ETA 00:23:49
Time 00:05:50 | Step 25236 / 100000 | TPS 52.3783 | ETA 00:23:47
Time 00:06:00 | Step 25761 / 100000 | TPS 52.4053 | ETA 00:23:36
Time 00:06:10 | Step 26277 / 100000 | TPS 51.5308 | ETA 00:23:50
Time 00:06:20 | Step 26790 / 100000 | TPS 51.2403 | ETA 00:23:48
Time 00:06:30 | Step 27301 / 100000 | TPS 50.9128 | ETA 00:23:47
Time 00:06:40 | Step 27812 / 100000 | TPS 51.0471 | ETA 00:23:34
Time 00:06:50 | Step 28316 / 100000 | TPS 50.2738 | ETA 00:23:45
Time 00:07:00 | Step 28815 / 100000 | TPS 49.8566 | ETA 00:23:47
Time 00:07:10 | Step 29318 / 100000 | TPS 50.265 | ETA 00:23:26
Time 00:07:20 | Step 29818 / 100000 | TPS 49.9083 | ETA 00:23:26
Time 00:07:30 | Step 30318 / 100000 | TPS 49.9758 | ETA 00:23:14
Time 00:07:40 | Step 30818 / 100000 | TPS 49.952 | ETA 00:23:04
Time 00:07:50 | Step 31316 / 100000 | TPS 49.7791 | ETA 00:22:59
Time 00:08:00 | Step 31816 / 100000 | TPS 49.9342 | ETA 00:22:45
Time 00:08:10 | Step 32314 / 100000 | TPS 49.7144 | ETA 00:22:41
Time 00:08:21 | Step 32811 / 100000 | TPS 49.6658 | ETA 00:22:32
Time 00:08:31 | Step 33308 / 100000 | TPS 49.6747 | ETA 00:22:22
Time 00:08:41 | Step 33805 / 100000 | TPS 49.6263 | ETA 00:22:13
Time 00:08:51 | Step 34297 / 100000 | TPS 49.104 | ETA 00:22:18
Time 00:09:01 | Step 34783 / 100000 | TPS 48.5869 | ETA 00:22:22
Time 00:09:11 | Step 35266 / 100000 | TPS 48.2543 | ETA 00:22:21
Time 00:09:21 | Step 35766 / 100000 | TPS 49.9902 | ETA 00:21:24
Time 00:09:31 | Step 36265 / 100000 | TPS 49.834 | ETA 00:21:18
Time 00:09:41 | Step 36753 / 100000 | TPS 48.707 | ETA 00:21:38
Time 00:09:51 | Step 37241 / 100000 | TPS 48.7499 | ETA 00:21:27
Time 00:10:01 | Step 37730 / 100000 | TPS 48.809 | ETA 00:21:15
Time 00:10:11 | Step 38233 / 100000 | TPS 50.2311 | ETA 00:20:29
Time 00:10:21 | Step 38748 / 100000 | TPS 51.4905 | ETA 00:19:49
Time 00:10:31 | Step 39263 / 100000 | TPS 51.4329 | ETA 00:19:40
Time 00:10:41 | Step 39775 / 100000 | TPS 51.1216 | ETA 00:19:38
Time 00:10:51 | Step 40287 / 100000 | TPS 51.1187 | ETA 00:19:28
Time 00:11:01 | Step 40798 / 100000 | TPS 51.0337 | ETA 00:19:20
Time 00:11:11 | Step 41305 / 100000 | TPS 50.6607 | ETA 00:19:18
Time 00:11:21 | Step 41813 / 100000 | TPS 50.7479 | ETA 00:19:06
Time 00:11:31 | Step 42322 / 100000 | TPS 50.8969 | ETA 00:18:53
Time 00:11:41 | Step 42832 / 100000 | TPS 50.9859 | ETA 00:18:41
Time 00:11:51 | Step 43343 / 100000 | TPS 51.0695 | ETA 00:18:29
Time 00:12:01 | Step 43855 / 100000 | TPS 51.148 | ETA 00:18:17
Time 00:12:11 | Step 44366 / 100000 | TPS 51.0324 | ETA 00:18:10
Time 00:12:21 | Step 44873 / 100000 | TPS 50.6345 | ETA 00:18:08
Time 00:12:31 | Step 45381 / 100000 | TPS 50.7579 | ETA 00:17:56
Time 00:12:41 | Step 45889 / 100000 | TPS 50.7564 | ETA 00:17:46
Time 00:12:51 | Step 46394 / 100000 | TPS 50.4338 | ETA 00:17:42
Time 00:13:01 | Step 46894 / 100000 | TPS 49.9252 | ETA 00:17:43
Time 00:13:11 | Step 47392 / 100000 | TPS 49.7732 | ETA 00:17:36
Time 00:13:21 | Step 47890 / 100000 | TPS 49.7584 | ETA 00:17:27
Time 00:13:31 | Step 48390 / 100000 | TPS 49.9824 | ETA 00:17:12
Time 00:13:41 | Step 48894 / 100000 | TPS 50.3268 | ETA 00:16:55
Time 00:13:51 | Step 49403 / 100000 | TPS 50.8541 | ETA 00:16:34
Time 00:14:01 | Step 49914 / 100000 | TPS 51.0193 | ETA 00:16:21
Time 00:14:11 | Step 50421 / 100000 | TPS 50.6407 | ETA 00:16:19
Time 00:14:21 | Step 50925 / 100000 | TPS 50.3772 | ETA 00:16:14
Time 00:14:31 | Step 51425 / 100000 | TPS 49.981 | ETA 00:16:11
Time 00:14:41 | Step 51922 / 100000 | TPS 49.6482 | ETA 00:16:08
Time 00:14:51 | Step 52419 / 100000 | TPS 49.6859 | ETA 00:15:57
Time 00:15:01 | Step 52913 / 100000 | TPS 49.3962 | ETA 00:15:53
Time 00:15:11 | Step 53408 / 100000 | TPS 49.4697 | ETA 00:15:41
Time 00:15:21 | Step 53909 / 100000 | TPS 50.0107 | ETA 00:15:21
Time 00:15:31 | Step 54412 / 100000 | TPS 50.2088 | ETA 00:15:07
Time 00:15:41 | Step 54913 / 100000 | TPS 50.0843 | ETA 00:15:00
Time 00:15:51 | Step 55413 / 100000 | TPS 49.8468 | ETA 00:14:54
Time 00:16:01 | Step 55909 / 100000 | TPS 49.5531 | ETA 00:14:49
Time 00:16:11 | Step 56403 / 100000 | TPS 49.3782 | ETA 00:14:42
Time 00:16:21 | Step 56902 / 100000 | TPS 49.8191 | ETA 00:14:25
Time 00:16:31 | Step 57404 / 100000 | TPS 50.1592 | ETA 00:14:09
Time 00:16:41 | Step 57904 / 100000 | TPS 49.903 | ETA 00:14:03
Time 00:16:51 | Step 58403 / 100000 | TPS 49.8804 | ETA 00:13:53
Time 00:17:01 | Step 58901 / 100000 | TPS 49.7378 | ETA 00:13:46
Time 00:17:11 | Step 59400 / 100000 | TPS 49.863 | ETA 00:13:34
Time 00:17:21 | Step 59897 / 100000 | TPS 49.6289 | ETA 00:13:28
Time 00:17:31 | Step 60391 / 100000 | TPS 49.3252 | ETA 00:13:23
Time 00:17:41 | Step 60884 / 100000 | TPS 49.2574 | ETA 00:13:14
Time 00:17:51 | Step 61378 / 100000 | TPS 49.3974 | ETA 00:13:01
Time 00:18:01 | Step 61874 / 100000 | TPS 49.5371 | ETA 00:12:49
Time 00:18:11 | Step 62370 / 100000 | TPS 49.5679 | ETA 00:12:39
Time 00:18:21 | Step 62862 / 100000 | TPS 49.1905 | ETA 00:12:34
Time 00:18:31 | Step 63353 / 100000 | TPS 49.061 | ETA 00:12:26
Time 00:18:41 | Step 63848 / 100000 | TPS 49.4166 | ETA 00:12:11
Time 00:18:51 | Step 64342 / 100000 | TPS 49.3086 | ETA 00:12:03
Time 00:19:01 | Step 64835 / 100000 | TPS 49.2473 | ETA 00:11:54
Time 00:19:11 | Step 65327 / 100000 | TPS 49.1477 | ETA 00:11:45
Time 00:19:21 | Step 65818 / 100000 | TPS 49.011 | ETA 00:11:37
Time 00:19:31 | Step 66306 / 100000 | TPS 48.7494 | ETA 00:11:31
Time 00:19:41 | Step 66796 / 100000 | TPS 48.9706 | ETA 00:11:18
Time 00:19:51 | Step 67284 / 100000 | TPS 48.7365 | ETA 00:11:11
Time 00:20:01 | Step 67772 / 100000 | TPS 48.7398 | ETA 00:11:01
Time 00:20:11 | Step 68260 / 100000 | TPS 48.7108 | ETA 00:10:51
Time 00:20:21 | Step 68745 / 100000 | TPS 48.4379 | ETA 00:10:45
Time 00:20:31 | Step 69231 / 100000 | TPS 48.5716 | ETA 00:10:33
Time 00:20:41 | Step 69712 / 100000 | TPS 48.0555 | ETA 00:10:30
Time 00:20:51 | Step 70198 / 100000 | TPS 48.4605 | ETA 00:10:14
Time 00:21:01 | Step 70683 / 100000 | TPS 48.4178 | ETA 00:10:05
Time 00:21:11 | Step 71167 / 100000 | TPS 48.3098 | ETA 00:09:56
Time 00:21:21 | Step 71651 / 100000 | TPS 48.3605 | ETA 00:09:46
Time 00:21:31 | Step 72135 / 100000 | TPS 48.379 | ETA 00:09:35
Time 00:21:41 | Step 72619 / 100000 | TPS 48.3448 | ETA 00:09:26
Time 00:21:51 | Step 73104 / 100000 | TPS 48.4657 | ETA 00:09:14
Time 00:22:01 | Step 73585 / 100000 | TPS 48.0143 | ETA 00:09:10
Time 00:22:11 | Step 74067 / 100000 | TPS 48.1993 | ETA 00:08:58
Time 00:22:21 | Step 74553 / 100000 | TPS 48.5066 | ETA 00:08:44
Time 00:22:31 | Step 75038 / 100000 | TPS 48.461 | ETA 00:08:35
Time 00:22:41 | Step 75526 / 100000 | TPS 48.768 | ETA 00:08:21
Time 00:22:51 | Step 76012 / 100000 | TPS 48.5457 | ETA 00:08:14
Time 00:23:01 | Step 76498 / 100000 | TPS 48.5538 | ETA 00:08:04
Time 00:23:11 | Step 76982 / 100000 | TPS 48.3332 | ETA 00:07:56
Time 00:23:21 | Step 77464 / 100000 | TPS 48.1595 | ETA 00:07:47
Time 00:23:31 | Step 77946 / 100000 | TPS 48.1782 | ETA 00:07:37
Time 00:23:41 | Step 78423 / 100000 | TPS 47.6246 | ETA 00:07:33
Time 00:23:51 | Step 78902 / 100000 | TPS 47.899 | ETA 00:07:20
Time 00:24:02 | Step 79389 / 100000 | TPS 48.6177 | ETA 00:07:03
Time 00:24:12 | Step 79872 / 100000 | TPS 48.287 | ETA 00:06:56
Time 00:24:22 | Step 80352 / 100000 | TPS 47.911 | ETA 00:06:50
Time 00:24:32 | Step 80831 / 100000 | TPS 47.8544 | ETA 00:06:40
Time 00:24:42 | Step 81306 / 100000 | TPS 47.472 | ETA 00:06:33
Time 00:24:52 | Step 81777 / 100000 | TPS 47.0658 | ETA 00:06:27
Time 00:25:02 | Step 82254 / 100000 | TPS 47.6091 | ETA 00:06:12
Time 00:25:12 | Step 82735 / 100000 | TPS 48.0756 | ETA 00:05:59
Time 00:25:22 | Step 83218 / 100000 | TPS 48.2484 | ETA 00:05:47
Time 00:25:32 | Step 83696 / 100000 | TPS 47.7146 | ETA 00:05:41
Time 00:25:42 | Step 84176 / 100000 | TPS 47.9736 | ETA 00:05:29
Time 00:25:52 | Step 84657 / 100000 | TPS 48.0764 | ETA 00:05:19
Time 00:26:02 | Step 85133 / 100000 | TPS 47.5558 | ETA 00:05:12
Time 00:26:12 | Step 85604 / 100000 | TPS 47.033 | ETA 00:05:06
Time 00:26:22 | Step 86081 / 100000 | TPS 47.6721 | ETA 00:04:51
Time 00:26:32 | Step 86564 / 100000 | TPS 48.2411 | ETA 00:04:38
Time 00:26:42 | Step 87043 / 100000 | TPS 47.8455 | ETA 00:04:30
Time 00:26:52 | Step 87521 / 100000 | TPS 47.7758 | ETA 00:04:21
Time 00:27:02 | Step 88003 / 100000 | TPS 48.1841 | ETA 00:04:08
Time 00:27:12 | Step 88481 / 100000 | TPS 47.7374 | ETA 00:04:01
Time 00:27:22 | Step 88953 / 100000 | TPS 47.1213 | ETA 00:03:54
Time 00:27:32 | Step 89424 / 100000 | TPS 47.0055 | ETA 00:03:44
Time 00:27:42 | Step 89908 / 100000 | TPS 48.3443 | ETA 00:03:28
Time 00:27:52 | Step 90395 / 100000 | TPS 48.6777 | ETA 00:03:17
Time 00:28:02 | Step 90883 / 100000 | TPS 48.7472 | ETA 00:03:07
Time 00:28:12 | Step 91367 / 100000 | TPS 48.3981 | ETA 00:02:58
Time 00:28:22 | Step 91853 / 100000 | TPS 48.5517 | ETA 00:02:47
Time 00:28:32 | Step 92337 / 100000 | TPS 48.3313 | ETA 00:02:38
Time 00:28:42 | Step 92813 / 100000 | TPS 47.5719 | ETA 00:02:31
Time 00:28:52 | Step 93291 / 100000 | TPS 47.7755 | ETA 00:02:20
Time 00:29:02 | Step 93771 / 100000 | TPS 47.9825 | ETA 00:02:09
Time 00:29:12 | Step 94251 / 100000 | TPS 47.914 | ETA 00:01:59
Time 00:29:22 | Step 94730 / 100000 | TPS 47.867 | ETA 00:01:50
Time 00:29:32 | Step 95208 / 100000 | TPS 47.7592 | ETA 00:01:40
Time 00:29:42 | Step 95685 / 100000 | TPS 47.6501 | ETA 00:01:30
Time 00:29:52 | Step 96159 / 100000 | TPS 47.3714 | ETA 00:01:21
Time 00:30:02 | Step 96632 / 100000 | TPS 47.2064 | ETA 00:01:11
Time 00:30:12 | Step 97109 / 100000 | TPS 47.6208 | ETA 00:01:00
Time 00:30:22 | Step 97587 / 100000 | TPS 47.7028 | ETA 00:00:50
Time 00:30:32 | Step 98072 / 100000 | TPS 48.429 | ETA 00:00:39
Time 00:30:42 | Step 98631 / 100000 | TPS 55.8154 | ETA 00:00:24
Time 00:30:52 | Step 99147 / 100000 | TPS 51.5616 | ETA 00:00:16
Time 00:31:02 | Step 99664 / 100000 | TPS 51.6317 | ETA 00:00:06
Time 00:31:08 | Step 100000 / 100000 | TPS 51.52 | ETA 00:00:00
Average TPS: 53.5189
---------
-- Neighborlist stats:
2765 normal updates / 334 forced updates / 0 dangerous updates
n_neigh_min: 8 / n_neigh_max: 778 / n_neigh_avg: 520.408
shortest rebuild period: 3
-- Cell list stats:
Dimension: 5, 5, 5
n_min    : 0 / n_max: 190 / n_avg: 48
-- Neighborlist stats:
0 normal updates / 0 forced updates / 0 dangerous updates
n_neigh_min: 0 / n_neigh_max: 0 / n_neigh_avg: 0
shortest rebuild period: 100
-- Cell list stats:
Dimension: 0, 0, 0
** run complete **
alex.py:113  |  dump.disable()
SWITCHING TO NPT
alex.py:115  |  nvt.disable()
alex.py:116  |  npt = md.integrate.npt(group=all, kT=2.7022, tau=1, P=0.062, tauP=10)
alex.py:117  |  hoomd.analyze.log(filename="analyze.log",
                  quantities=['temperature', 'potential_energy','kinetic_energy', 'bond_harmonic_energy', 'pppm_energy', 'pair_lj_energy', 'angle_harmonic_energy','volume','pressure'],
                  period=100,
                  overwrite=True)
alex.py:121  |  hoomd.dump.dcd('npt.dcd', period = 100, overwrite = True)
alex.py:122  |  hoomd.run(1e5)
** starting run **
Time 00:31:19 | Step 100379 / 200000 | TPS 37.8888 | ETA 00:43:49
Time 00:31:29 | Step 100807 / 200000 | TPS 42.7688 | ETA 00:38:39
Time 00:31:39 | Step 101135 / 200000 | TPS 32.7752 | ETA 00:50:16
Time 00:31:49 | Step 101547 / 200000 | TPS 41.1575 | ETA 00:39:52
Time 00:31:59 | Step 101970 / 200000 | TPS 42.2501 | ETA 00:38:40
Time 00:32:09 | Step 102394 / 200000 | TPS 42.3258 | ETA 00:38:26
Time 00:32:19 | Step 102819 / 200000 | TPS 42.4022 | ETA 00:38:11
Time 00:32:29 | Step 103244 / 200000 | TPS 42.4738 | ETA 00:37:58
Time 00:32:39 | Step 103668 / 200000 | TPS 42.3195 | ETA 00:37:56
Time 00:32:49 | Step 104090 / 200000 | TPS 42.0822 | ETA 00:37:59
Time 00:32:59 | Step 104510 / 200000 | TPS 41.9853 | ETA 00:37:54
Time 00:33:09 | Step 104933 / 200000 | TPS 42.2509 | ETA 00:37:30
Time 00:33:19 | Step 105356 / 200000 | TPS 42.2874 | ETA 00:37:18
Time 00:33:29 | Step 105782 / 200000 | TPS 42.5928 | ETA 00:36:52
Time 00:33:39 | Step 106203 / 200000 | TPS 42.0726 | ETA 00:37:09
Time 00:33:49 | Step 106623 / 200000 | TPS 41.9459 | ETA 00:37:06
Time 00:33:59 | Step 107039 / 200000 | TPS 41.5171 | ETA 00:37:19
Time 00:34:09 | Step 107458 / 200000 | TPS 41.8748 | ETA 00:36:49
Time 00:34:19 | Step 107875 / 200000 | TPS 41.6094 | ETA 00:36:54
Time 00:34:29 | Step 108292 / 200000 | TPS 41.6019 | ETA 00:36:44
Time 00:34:39 | Step 108706 / 200000 | TPS 41.3134 | ETA 00:36:49
Time 00:34:49 | Step 109117 / 200000 | TPS 41.017 | ETA 00:36:55
Time 00:34:59 | Step 109524 / 200000 | TPS 40.6836 | ETA 00:37:03
Time 00:35:09 | Step 109931 / 200000 | TPS 40.6526 | ETA 00:36:55
Time 00:35:19 | Step 110339 / 200000 | TPS 40.7754 | ETA 00:36:38
Time 00:35:29 | Step 110743 / 200000 | TPS 40.3245 | ETA 00:36:53
Time 00:35:39 | Step 111143 / 200000 | TPS 39.994 | ETA 00:37:01
Time 00:35:49 | Step 111537 / 200000 | TPS 39.3646 | ETA 00:37:27
Time 00:35:59 | Step 111923 / 200000 | TPS 38.5882 | ETA 00:38:02
Time 00:36:09 | Step 112306 / 200000 | TPS 38.2826 | ETA 00:38:10
Time 00:36:19 | Step 112677 / 200000 | TPS 37.0824 | ETA 00:39:14
Time 00:36:29 | Step 113046 / 200000 | TPS 36.8482 | ETA 00:39:19
Time 00:36:39 | Step 113425 / 200000 | TPS 37.8389 | ETA 00:38:07
Time 00:36:49 | Step 113797 / 200000 | TPS 37.1484 | ETA 00:38:40
Time 00:36:59 | Step 114150 / 200000 | TPS 35.2406 | ETA 00:40:36
Time 00:37:09 | Step 114497 / 200000 | TPS 34.6074 | ETA 00:41:10
Time 00:37:19 | Step 114836 / 200000 | TPS 33.8899 | ETA 00:41:52
Time 00:37:29 | Step 115169 / 200000 | TPS 33.2576 | ETA 00:42:30
Time 00:37:39 | Step 115497 / 200000 | TPS 32.7653 | ETA 00:42:59
Time 00:37:49 | Step 115820 / 200000 | TPS 32.2983 | ETA 00:43:26
Time 00:37:59 | Step 116151 / 200000 | TPS 33.0697 | ETA 00:42:15
Time 00:38:09 | Step 116474 / 200000 | TPS 32.2675 | ETA 00:43:08
Time 00:38:19 | Step 116793 / 200000 | TPS 31.8459 | ETA 00:43:32
Time 00:38:29 | Step 117106 / 200000 | TPS 31.2633 | ETA 00:44:11
Time 00:38:39 | Step 117405 / 200000 | TPS 29.8631 | ETA 00:46:05
Time 00:38:49 | Step 117699 / 200000 | TPS 29.3495 | ETA 00:46:44
Time 00:38:59 | Step 117993 / 200000 | TPS 29.3897 | ETA 00:46:30
Time 00:39:09 | Step 118284 / 200000 | TPS 29.0666 | ETA 00:46:51
Time 00:39:19 | Step 118575 / 200000 | TPS 29.0376 | ETA 00:46:44
Time 00:39:29 | Step 118868 / 200000 | TPS 29.2815 | ETA 00:46:10
Time 00:39:39 | Step 119153 / 200000 | TPS 28.4285 | ETA 00:47:23
Time 00:39:49 | Step 119440 / 200000 | TPS 28.6706 | ETA 00:46:49
Time 00:39:59 | Step 119731 / 200000 | TPS 29.0236 | ETA 00:46:05
Time 00:40:09 | Step 120024 / 200000 | TPS 29.2989 | ETA 00:45:29
Time 00:40:19 | Step 120321 / 200000 | TPS 29.6717 | ETA 00:44:45
Time 00:40:29 | Step 120622 / 200000 | TPS 30.0035 | ETA 00:44:05
Time 00:40:39 | Step 120926 / 200000 | TPS 30.3492 | ETA 00:43:25
Time 00:40:49 | Step 121233 / 200000 | TPS 30.6976 | ETA 00:42:45
Time 00:40:59 | Step 121545 / 200000 | TPS 31.1376 | ETA 00:41:59
Time 00:41:09 | Step 121865 / 200000 | TPS 31.9389 | ETA 00:40:46
Time 00:41:19 | Step 122191 / 200000 | TPS 32.595 | ETA 00:39:47
Time 00:41:29 | Step 122523 / 200000 | TPS 33.154 | ETA 00:38:56
Time 00:41:39 | Step 122856 / 200000 | TPS 33.2914 | ETA 00:38:37
Time 00:41:49 | Step 123191 / 200000 | TPS 33.456 | ETA 00:38:15
Time 00:41:59 | Step 123523 / 200000 | TPS 33.1737 | ETA 00:38:25
Time 00:42:09 | Step 123857 / 200000 | TPS 33.3296 | ETA 00:38:04
Time 00:42:19 | Step 124188 / 200000 | TPS 33.057 | ETA 00:38:13
Time 00:42:29 | Step 124516 / 200000 | TPS 32.7685 | ETA 00:38:23
Time 00:42:39 | Step 124842 / 200000 | TPS 32.53 | ETA 00:38:30
Time 00:42:49 | Step 125160 / 200000 | TPS 31.7604 | ETA 00:39:16
Time 00:42:59 | Step 125466 / 200000 | TPS 30.5833 | ETA 00:40:37
Time 00:43:09 | Step 125767 / 200000 | TPS 30.0755 | ETA 00:41:08
Time 00:43:19 | Step 126066 / 200000 | TPS 29.8108 | ETA 00:41:20
Time 00:43:29 | Step 126361 / 200000 | TPS 29.4489 | ETA 00:41:40
Time 00:43:39 | Step 126654 / 200000 | TPS 29.2155 | ETA 00:41:50
Time 00:43:49 | Step 126945 / 200000 | TPS 29.0462 | ETA 00:41:55
Time 00:44:00 | Step 127234 / 200000 | TPS 28.8821 | ETA 00:41:59
Time 00:44:10 | Step 127522 / 200000 | TPS 28.7374 | ETA 00:42:02
Time 00:44:20 | Step 127811 / 200000 | TPS 28.8107 | ETA 00:41:45
Time 00:44:30 | Step 128107 / 200000 | TPS 29.514 | ETA 00:40:35
Time 00:44:40 | Step 128404 / 200000 | TPS 29.6446 | ETA 00:40:15
Time 00:44:50 | Step 128699 / 200000 | TPS 29.4441 | ETA 00:40:21
Time 00:45:00 | Step 128989 / 200000 | TPS 28.9147 | ETA 00:40:55
Time 00:45:10 | Step 129278 / 200000 | TPS 28.8926 | ETA 00:40:47
Time 00:45:20 | Step 129567 / 200000 | TPS 28.893 | ETA 00:40:37
Time 00:45:30 | Step 129859 / 200000 | TPS 29.1707 | ETA 00:40:04
Time 00:45:40 | Step 130154 / 200000 | TPS 29.4189 | ETA 00:39:34
Time 00:45:50 | Step 130451 / 200000 | TPS 29.6049 | ETA 00:39:09
Time 00:46:00 | Step 130747 / 200000 | TPS 29.5597 | ETA 00:39:02
Time 00:46:10 | Step 131047 / 200000 | TPS 29.9754 | ETA 00:38:20
Time 00:46:20 | Step 131348 / 200000 | TPS 30.0055 | ETA 00:38:07
Time 00:46:30 | Step 131649 / 200000 | TPS 30.0339 | ETA 00:37:55
Time 00:46:40 | Step 131951 / 200000 | TPS 30.1076 | ETA 00:37:40
Time 00:46:50 | Step 132254 / 200000 | TPS 30.2554 | ETA 00:37:19
Time 00:47:00 | Step 132558 / 200000 | TPS 30.3059 | ETA 00:37:05
Time 00:47:10 | Step 132862 / 200000 | TPS 30.3016 | ETA 00:36:55
Time 00:47:20 | Step 133165 / 200000 | TPS 30.2248 | ETA 00:36:51
Time 00:47:30 | Step 133468 / 200000 | TPS 30.2654 | ETA 00:36:38
Time 00:47:40 | Step 133769 / 200000 | TPS 30.0895 | ETA 00:36:41
Time 00:47:50 | Step 134072 / 200000 | TPS 30.2097 | ETA 00:36:22
Time 00:48:00 | Step 134372 / 200000 | TPS 29.9637 | ETA 00:36:30
Time 00:48:10 | Step 134671 / 200000 | TPS 29.8331 | ETA 00:36:29
Time 00:48:20 | Step 134968 / 200000 | TPS 29.6156 | ETA 00:36:35
Time 00:48:30 | Step 135266 / 200000 | TPS 29.756 | ETA 00:36:15
Time 00:48:40 | Step 135562 / 200000 | TPS 29.5559 | ETA 00:36:20
Time 00:48:50 | Step 135858 / 200000 | TPS 29.5555 | ETA 00:36:10
Time 00:49:00 | Step 136153 / 200000 | TPS 29.443 | ETA 00:36:08
Time 00:49:10 | Step 136447 / 200000 | TPS 29.3362 | ETA 00:36:06
Time 00:49:20 | Step 136740 / 200000 | TPS 29.2883 | ETA 00:35:59
Time 00:49:30 | Step 137033 / 200000 | TPS 29.2545 | ETA 00:35:52
Time 00:49:40 | Step 137327 / 200000 | TPS 29.3965 | ETA 00:35:31
Time 00:49:50 | Step 137621 / 200000 | TPS 29.3007 | ETA 00:35:28
Time 00:50:00 | Step 137913 / 200000 | TPS 29.1295 | ETA 00:35:31
Time 00:50:10 | Step 138205 / 200000 | TPS 29.1318 | ETA 00:35:21
Time 00:50:20 | Step 138499 / 200000 | TPS 29.3335 | ETA 00:34:56
Time 00:50:30 | Step 138792 / 200000 | TPS 29.2046 | ETA 00:34:55
Time 00:50:40 | Step 139084 / 200000 | TPS 29.1505 | ETA 00:34:49
Time 00:50:50 | Step 139376 / 200000 | TPS 29.1345 | ETA 00:34:40
Time 00:51:00 | Step 139667 / 200000 | TPS 29.0739 | ETA 00:34:35
Time 00:51:10 | Step 139960 / 200000 | TPS 29.2519 | ETA 00:34:12
Time 00:51:20 | Step 140252 / 200000 | TPS 29.1548 | ETA 00:34:09
Time 00:51:30 | Step 140544 / 200000 | TPS 29.1732 | ETA 00:33:58
Time 00:51:40 | Step 140837 / 200000 | TPS 29.2071 | ETA 00:33:45
Time 00:51:50 | Step 141130 / 200000 | TPS 29.297 | ETA 00:33:29
Time 00:52:00 | Step 141423 / 200000 | TPS 29.2011 | ETA 00:33:25
Time 00:52:10 | Step 141716 / 200000 | TPS 29.2625 | ETA 00:33:11
Time 00:52:20 | Step 142009 / 200000 | TPS 29.2707 | ETA 00:33:01
Time 00:52:31 | Step 142305 / 200000 | TPS 29.4462 | ETA 00:32:39
Time 00:52:41 | Step 142600 / 200000 | TPS 29.4364 | ETA 00:32:29
Time 00:52:51 | Step 142894 / 200000 | TPS 29.392 | ETA 00:32:22
Time 00:53:01 | Step 143190 / 200000 | TPS 29.506 | ETA 00:32:05
Time 00:53:11 | Step 143485 / 200000 | TPS 29.4374 | ETA 00:31:59
Time 00:53:21 | Step 143780 / 200000 | TPS 29.4375 | ETA 00:31:49
Time 00:53:31 | Step 144075 / 200000 | TPS 29.4256 | ETA 00:31:40
Time 00:53:41 | Step 144371 / 200000 | TPS 29.5594 | ETA 00:31:21
Time 00:53:51 | Step 144668 / 200000 | TPS 29.6285 | ETA 00:31:07
Time 00:54:01 | Step 144964 / 200000 | TPS 29.5204 | ETA 00:31:04
Time 00:54:11 | Step 145259 / 200000 | TPS 29.4816 | ETA 00:30:56
Time 00:54:21 | Step 145554 / 200000 | TPS 29.435 | ETA 00:30:49
Time 00:54:31 | Step 145848 / 200000 | TPS 29.36 | ETA 00:30:44
Time 00:54:41 | Step 146142 / 200000 | TPS 29.3714 | ETA 00:30:33
Time 00:54:51 | Step 146436 / 200000 | TPS 29.3368 | ETA 00:30:25
Time 00:55:01 | Step 146729 / 200000 | TPS 29.2894 | ETA 00:30:18
Time 00:55:11 | Step 147022 / 200000 | TPS 29.2499 | ETA 00:30:11
Time 00:55:21 | Step 147315 / 200000 | TPS 29.2383 | ETA 00:30:01
Time 00:55:31 | Step 147608 / 200000 | TPS 29.1989 | ETA 00:29:54
Time 00:55:41 | Step 147901 / 200000 | TPS 29.2411 | ETA 00:29:41
Time 00:55:51 | Step 148195 / 200000 | TPS 29.3238 | ETA 00:29:26
Time 00:56:01 | Step 148488 / 200000 | TPS 29.2936 | ETA 00:29:18
Time 00:56:11 | Step 148781 / 200000 | TPS 29.2597 | ETA 00:29:10
Time 00:56:21 | Step 149073 / 200000 | TPS 29.1493 | ETA 00:29:07
Time 00:56:31 | Step 149366 / 200000 | TPS 29.2148 | ETA 00:28:53
Time 00:56:41 | Step 149660 / 200000 | TPS 29.3549 | ETA 00:28:34
Time 00:56:51 | Step 149951 / 200000 | TPS 29.0923 | ETA 00:28:40
Time 00:57:01 | Step 150245 / 200000 | TPS 29.3581 | ETA 00:28:14
Time 00:57:11 | Step 150538 / 200000 | TPS 29.2628 | ETA 00:28:10
Time 00:57:21 | Step 150830 / 200000 | TPS 29.1916 | ETA 00:28:04
Time 00:57:31 | Step 151122 / 200000 | TPS 29.1985 | ETA 00:27:53
Time 00:57:41 | Step 151415 / 200000 | TPS 29.2781 | ETA 00:27:39
Time 00:57:51 | Step 151708 / 200000 | TPS 29.2417 | ETA 00:27:31
Time 00:58:01 | Step 152000 / 200000 | TPS 29.113 | ETA 00:27:28
Time 00:58:11 | Step 152293 / 200000 | TPS 29.2404 | ETA 00:27:11
Time 00:58:21 | Step 152586 / 200000 | TPS 29.2149 | ETA 00:27:02
Time 00:58:31 | Step 152879 / 200000 | TPS 29.2757 | ETA 00:26:49
Time 00:58:41 | Step 153173 / 200000 | TPS 29.3086 | ETA 00:26:37
Time 00:58:51 | Step 153467 / 200000 | TPS 29.3096 | ETA 00:26:27
Time 00:59:01 | Step 153761 / 200000 | TPS 29.3875 | ETA 00:26:13
Time 00:59:11 | Step 154054 / 200000 | TPS 29.228 | ETA 00:26:11
Time 00:59:21 | Step 154347 / 200000 | TPS 29.2421 | ETA 00:26:01
Time 00:59:31 | Step 154641 / 200000 | TPS 29.3272 | ETA 00:25:46
Time 00:59:41 | Step 154932 / 200000 | TPS 29.0798 | ETA 00:25:49
Time 00:59:51 | Step 155224 / 200000 | TPS 29.1326 | ETA 00:25:36
Time 01:00:01 | Step 155515 / 200000 | TPS 29.0714 | ETA 00:25:30
Time 01:00:11 | Step 155805 / 200000 | TPS 28.9403 | ETA 00:25:27
Time 01:00:21 | Step 156095 / 200000 | TPS 28.9496 | ETA 00:25:16
Time 01:00:31 | Step 156384 / 200000 | TPS 28.8704 | ETA 00:25:10
Time 01:00:41 | Step 156674 / 200000 | TPS 28.9937 | ETA 00:24:54
Time 01:00:51 | Step 156965 / 200000 | TPS 29.0679 | ETA 00:24:40
Time 01:01:01 | Step 157255 / 200000 | TPS 28.9884 | ETA 00:24:34
Time 01:01:11 | Step 157546 / 200000 | TPS 29.0005 | ETA 00:24:23
Time 01:01:21 | Step 157838 / 200000 | TPS 29.1282 | ETA 00:24:07
Time 01:01:31 | Step 158130 / 200000 | TPS 29.1293 | ETA 00:23:57
Time 01:01:41 | Step 158422 / 200000 | TPS 29.1094 | ETA 00:23:48
Time 01:01:51 | Step 158714 / 200000 | TPS 29.1687 | ETA 00:23:35
Time 01:02:02 | Step 159006 / 200000 | TPS 29.1475 | ETA 00:23:26
Time 01:02:12 | Step 159300 / 200000 | TPS 29.3947 | ETA 00:23:04
Time 01:02:22 | Step 159593 / 200000 | TPS 29.2395 | ETA 00:23:01
Time 01:02:32 | Step 159887 / 200000 | TPS 29.3056 | ETA 00:22:48
Time 01:02:42 | Step 160181 / 200000 | TPS 29.3437 | ETA 00:22:36
Time 01:02:52 | Step 160476 / 200000 | TPS 29.4371 | ETA 00:22:22
Time 01:03:02 | Step 160771 / 200000 | TPS 29.4293 | ETA 00:22:12
Time 01:03:12 | Step 161066 / 200000 | TPS 29.4692 | ETA 00:22:01
Time 01:03:22 | Step 161361 / 200000 | TPS 29.4831 | ETA 00:21:50
Time 01:03:32 | Step 161655 / 200000 | TPS 29.344 | ETA 00:21:46
Time 01:03:42 | Step 161950 / 200000 | TPS 29.4077 | ETA 00:21:33
Time 01:03:52 | Step 162244 / 200000 | TPS 29.3922 | ETA 00:21:24
Time 01:04:02 | Step 162538 / 200000 | TPS 29.3933 | ETA 00:21:14
Time 01:04:12 | Step 162832 / 200000 | TPS 29.3193 | ETA 00:21:07
Time 01:04:22 | Step 163125 / 200000 | TPS 29.2987 | ETA 00:20:58
Time 01:04:32 | Step 163418 / 200000 | TPS 29.2776 | ETA 00:20:49
Time 01:04:42 | Step 163711 / 200000 | TPS 29.2044 | ETA 00:20:42
Time 01:04:52 | Step 164001 / 200000 | TPS 28.9721 | ETA 00:20:42
Time 01:05:02 | Step 164292 / 200000 | TPS 29.0586 | ETA 00:20:28
Time 01:05:12 | Step 164582 / 200000 | TPS 28.9403 | ETA 00:20:23
Time 01:05:22 | Step 164872 / 200000 | TPS 28.9682 | ETA 00:20:12
Time 01:05:32 | Step 165163 / 200000 | TPS 29.0157 | ETA 00:20:00
Time 01:05:42 | Step 165453 / 200000 | TPS 28.9297 | ETA 00:19:54
Time 01:05:52 | Step 165743 / 200000 | TPS 28.9798 | ETA 00:19:42
Time 01:06:02 | Step 166032 / 200000 | TPS 28.8259 | ETA 00:19:38
Time 01:06:12 | Step 166323 / 200000 | TPS 29.0177 | ETA 00:19:20
Time 01:06:22 | Step 166613 / 200000 | TPS 28.9259 | ETA 00:19:14
Time 01:06:32 | Step 166905 / 200000 | TPS 29.1238 | ETA 00:18:56
Time 01:06:42 | Step 167197 / 200000 | TPS 29.1609 | ETA 00:18:44
Time 01:06:52 | Step 167490 / 200000 | TPS 29.2173 | ETA 00:18:32
Time 01:07:02 | Step 167782 / 200000 | TPS 29.1734 | ETA 00:18:24
Time 01:07:12 | Step 168075 / 200000 | TPS 29.226 | ETA 00:18:12
Time 01:07:22 | Step 168368 / 200000 | TPS 29.203 | ETA 00:18:03
Time 01:07:32 | Step 168659 / 200000 | TPS 29.0392 | ETA 00:17:59
Time 01:07:42 | Step 168950 / 200000 | TPS 29.0637 | ETA 00:17:48
Time 01:07:52 | Step 169242 / 200000 | TPS 29.0941 | ETA 00:17:37
Time 01:08:02 | Step 169534 / 200000 | TPS 29.1693 | ETA 00:17:24
Time 01:08:12 | Step 169826 / 200000 | TPS 29.1677 | ETA 00:17:14
Time 01:08:22 | Step 170118 / 200000 | TPS 29.1348 | ETA 00:17:05
Time 01:08:32 | Step 170409 / 200000 | TPS 29.0079 | ETA 00:17:00
Time 01:08:42 | Step 170700 / 200000 | TPS 29.0801 | ETA 00:16:47
Time 01:08:52 | Step 170990 / 200000 | TPS 28.9943 | ETA 00:16:40
Time 01:09:02 | Step 171281 / 200000 | TPS 29.0602 | ETA 00:16:28
Time 01:09:12 | Step 171571 / 200000 | TPS 28.9813 | ETA 00:16:20
Time 01:09:22 | Step 171861 / 200000 | TPS 28.9665 | ETA 00:16:11
Time 01:09:32 | Step 172151 / 200000 | TPS 28.9842 | ETA 00:16:00
Time 01:09:42 | Step 172441 / 200000 | TPS 28.9623 | ETA 00:15:51
Time 01:09:52 | Step 172731 / 200000 | TPS 28.9954 | ETA 00:15:40
Time 01:10:02 | Step 173021 / 200000 | TPS 28.9584 | ETA 00:15:31
Time 01:10:12 | Step 173312 / 200000 | TPS 29.0875 | ETA 00:15:17
Time 01:10:22 | Step 173602 / 200000 | TPS 28.9037 | ETA 00:15:13
Time 01:10:32 | Step 173895 / 200000 | TPS 29.2507 | ETA 00:14:52
Time 01:10:42 | Step 174185 / 200000 | TPS 28.9634 | ETA 00:14:51
Time 01:10:52 | Step 174475 / 200000 | TPS 28.9652 | ETA 00:14:41
Time 01:11:02 | Step 174765 / 200000 | TPS 28.9338 | ETA 00:14:32
Time 01:11:12 | Step 175056 / 200000 | TPS 29.0727 | ETA 00:14:17
Time 01:11:22 | Step 175347 / 200000 | TPS 29.0503 | ETA 00:14:08
Time 01:11:32 | Step 175639 / 200000 | TPS 29.109 | ETA 00:13:56
Time 01:11:42 | Step 175931 / 200000 | TPS 29.1631 | ETA 00:13:45
Time 01:11:53 | Step 176222 / 200000 | TPS 29.0385 | ETA 00:13:38
Time 01:12:03 | Step 176514 / 200000 | TPS 29.1201 | ETA 00:13:26
Time 01:12:13 | Step 176806 / 200000 | TPS 29.1272 | ETA 00:13:16
Time 01:12:23 | Step 177099 / 200000 | TPS 29.2106 | ETA 00:13:03
Time 01:12:33 | Step 177391 / 200000 | TPS 29.1525 | ETA 00:12:55
Time 01:12:43 | Step 177684 / 200000 | TPS 29.265 | ETA 00:12:42
Time 01:12:53 | Step 177977 / 200000 | TPS 29.2947 | ETA 00:12:31
Time 01:13:03 | Step 178271 / 200000 | TPS 29.3011 | ETA 00:12:21
Time 01:13:13 | Step 178563 / 200000 | TPS 29.182 | ETA 00:12:14
Time 01:13:23 | Step 178855 / 200000 | TPS 29.1432 | ETA 00:12:05
Time 01:13:33 | Step 179148 / 200000 | TPS 29.2311 | ETA 00:11:53
Time 01:13:43 | Step 179440 / 200000 | TPS 29.1489 | ETA 00:11:45
Time 01:13:53 | Step 179732 / 200000 | TPS 29.1524 | ETA 00:11:35
Time 01:14:03 | Step 180024 / 200000 | TPS 29.1322 | ETA 00:11:25
Time 01:14:13 | Step 180315 / 200000 | TPS 29.0401 | ETA 00:11:17
Time 01:14:23 | Step 180605 / 200000 | TPS 28.9799 | ETA 00:11:09
Time 01:14:33 | Step 180897 / 200000 | TPS 29.1173 | ETA 00:10:56
Time 01:14:43 | Step 181187 / 200000 | TPS 28.9154 | ETA 00:10:50
Time 01:14:53 | Step 181476 / 200000 | TPS 28.8371 | ETA 00:10:42
Time 01:15:03 | Step 181767 / 200000 | TPS 28.9451 | ETA 00:10:29
Time 01:15:13 | Step 182056 / 200000 | TPS 28.8479 | ETA 00:10:22
Time 01:15:23 | Step 182345 / 200000 | TPS 28.8706 | ETA 00:10:11
Time 01:15:33 | Step 182634 / 200000 | TPS 28.8163 | ETA 00:10:02
Time 01:15:43 | Step 182923 / 200000 | TPS 28.859 | ETA 00:09:51
Time 01:15:53 | Step 183212 / 200000 | TPS 28.8028 | ETA 00:09:42
Time 01:16:03 | Step 183501 / 200000 | TPS 28.8368 | ETA 00:09:32
Time 01:16:13 | Step 183790 / 200000 | TPS 28.8898 | ETA 00:09:21
Time 01:16:23 | Step 184079 / 200000 | TPS 28.8312 | ETA 00:09:12
Time 01:16:33 | Step 184369 / 200000 | TPS 28.9105 | ETA 00:09:00
Time 01:16:43 | Step 184659 / 200000 | TPS 28.9444 | ETA 00:08:50
Time 01:16:53 | Step 184951 / 200000 | TPS 29.17 | ETA 00:08:35
Time 01:17:03 | Step 185242 / 200000 | TPS 29.06 | ETA 00:08:27
Time 01:17:13 | Step 185534 / 200000 | TPS 29.1789 | ETA 00:08:15
Time 01:17:23 | Step 185827 / 200000 | TPS 29.2997 | ETA 00:08:03
Time 01:17:33 | Step 186120 / 200000 | TPS 29.2344 | ETA 00:07:54
Time 01:17:43 | Step 186414 / 200000 | TPS 29.3916 | ETA 00:07:42
Time 01:17:53 | Step 186708 / 200000 | TPS 29.3254 | ETA 00:07:33
Time 01:18:03 | Step 187002 / 200000 | TPS 29.3227 | ETA 00:07:23
Time 01:18:13 | Step 187297 / 200000 | TPS 29.4081 | ETA 00:07:11
Time 01:18:23 | Step 187590 / 200000 | TPS 29.294 | ETA 00:07:03
Time 01:18:33 | Step 187885 / 200000 | TPS 29.4087 | ETA 00:06:51
Time 01:18:43 | Step 188178 / 200000 | TPS 29.2529 | ETA 00:06:44
Time 01:18:53 | Step 188471 / 200000 | TPS 29.2209 | ETA 00:06:34
Time 01:19:03 | Step 188764 / 200000 | TPS 29.2257 | ETA 00:06:24
Time 01:19:13 | Step 189054 / 200000 | TPS 28.9234 | ETA 00:06:18
Time 01:19:23 | Step 189345 / 200000 | TPS 29.0311 | ETA 00:06:07
Time 01:19:33 | Step 189635 / 200000 | TPS 28.9744 | ETA 00:05:57
Time 01:19:43 | Step 189923 / 200000 | TPS 28.701 | ETA 00:05:51
Time 01:19:53 | Step 190211 / 200000 | TPS 28.7717 | ETA 00:05:40
Time 01:20:03 | Step 190500 / 200000 | TPS 28.8811 | ETA 00:05:28
Time 01:20:13 | Step 190788 / 200000 | TPS 28.7929 | ETA 00:05:19
Time 01:20:24 | Step 191076 / 200000 | TPS 28.7072 | ETA 00:05:10
Time 01:20:34 | Step 191364 / 200000 | TPS 28.7078 | ETA 00:05:00
Time 01:20:44 | Step 191653 / 200000 | TPS 28.8749 | ETA 00:04:49
Time 01:20:54 | Step 191943 / 200000 | TPS 28.9924 | ETA 00:04:37
Time 01:21:04 | Step 192233 / 200000 | TPS 28.9592 | ETA 00:04:28
Time 01:21:14 | Step 192607 / 200000 | TPS 37.3457 | ETA 00:03:17
Time 01:21:24 | Step 193236 / 200000 | TPS 62.8974 | ETA 00:01:47
Time 01:21:34 | Step 193684 / 200000 | TPS 44.7794 | ETA 00:02:21
Time 01:21:44 | Step 194017 / 200000 | TPS 33.2516 | ETA 00:02:59
Time 01:21:54 | Step 194358 / 200000 | TPS 34.0555 | ETA 00:02:45
Time 01:22:04 | Step 194700 / 200000 | TPS 34.1006 | ETA 00:02:35
Time 01:22:14 | Step 195043 / 200000 | TPS 34.2314 | ETA 00:02:24
Time 01:22:24 | Step 195385 / 200000 | TPS 34.1829 | ETA 00:02:15
Time 01:22:34 | Step 195711 / 200000 | TPS 32.5807 | ETA 00:02:11
Time 01:22:44 | Step 196034 / 200000 | TPS 32.2678 | ETA 00:02:02
Time 01:22:54 | Step 196353 / 200000 | TPS 31.8912 | ETA 00:01:54
Time 01:23:04 | Step 196658 / 200000 | TPS 30.4579 | ETA 00:01:49
Time 01:23:14 | Step 196970 / 200000 | TPS 31.1876 | ETA 00:01:37
Time 01:23:24 | Step 197284 / 200000 | TPS 31.3277 | ETA 00:01:26
Time 01:23:34 | Step 197593 / 200000 | TPS 30.8839 | ETA 00:01:17
Time 01:23:44 | Step 197900 / 200000 | TPS 30.6033 | ETA 00:01:08
Time 01:23:54 | Step 198211 / 200000 | TPS 31.0082 | ETA 00:00:57
Time 01:24:04 | Step 198523 / 200000 | TPS 31.1892 | ETA 00:00:47
Time 01:24:14 | Step 198834 / 200000 | TPS 31.082 | ETA 00:00:37
Time 01:24:24 | Step 199145 / 200000 | TPS 31.0327 | ETA 00:00:27
Time 01:24:34 | Step 199456 / 200000 | TPS 31.0308 | ETA 00:00:17
Time 01:24:44 | Step 199770 / 200000 | TPS 31.3563 | ETA 00:00:07
Time 01:24:51 | Step 200000 / 200000 | TPS 31.3296 | ETA 00:00:00
Average TPS: 31.03
---------
-- Neighborlist stats:
1863 normal updates / 334 forced updates / 0 dangerous updates
n_neigh_min: 713 / n_neigh_max: 816 / n_neigh_avg: 765.032
shortest rebuild period: 20
-- Cell list stats:
Dimension: 3, 3, 3
n_min    : 198 / n_max: 233 / n_avg: 222.222
-- Neighborlist stats:
0 normal updates / 0 forced updates / 0 dangerous updates
n_neigh_min: 0 / n_neigh_max: 0 / n_neigh_avg: 0
shortest rebuild period: 100
-- Cell list stats:
Dimension: 0, 0, 0
** run complete **
