HOOMD-blue 2.5.2 CUDA (10.1) DOUBLE HPMC_MIXED MPI SSE SSE2 SSE3 SSE4_1 SSE4_2 AVX 
Compiled: 06/04/2019
Copyright (c) 2009-2019 The Regents of the University of Michigan.
-----
You are using HOOMD-blue. Please cite the following:
* J A Anderson, C D Lorenz, and A Travesset. "General purpose molecular dynamics
  simulations fully implemented on graphics processing units", Journal of
  Computational Physics 227 (2008) 5342--5359
* J Glaser, T D Nguyen, J A Anderson, P Liu, F Spiga, J A Millan, D C Morse, and
  S C Glotzer. "Strong scaling of general-purpose molecular dynamics simulations
  on GPUs", Computer Physics Communications 192 (2015) 97--107
-----
HOOMD-blue is running on the following GPU(s):
 [0]      GeForce RTX 2060  30 SM_7.5 @ 1.68 GHz, 5933 MiB DRAM, MNG
hoomd_simulation.py:112  |      hoomd.init.read_snapshot(snapshot)
notice(2): Group "all" created containing 6000 particles
hoomd_simulation.py:114  |      nl = hoomd.md.nlist.cell()
hoomd_simulation.py:115  |      nl.reset_exclusions(exclusions=['1-2', '1-3'])
notice(2): -- Neighborlist exclusion statistics -- :
notice(2): Particles with 2 exclusions             : 6000
notice(2): Neighbors included by diameter          : no
notice(2): Neighbors excluded when in the same body: no
Processing LJ and QQ
hoomd_simulation.py:165  |      lj = hoomd.md.pair.lj(r_cut, nl)
hoomd_simulation.py:167  |          lj.pair_coeff.set(name, name,
                sigma=atom_type.sigma/ref_distance,
                epsilon=atom_type.epsilon/ref_energy)
hoomd_simulation.py:167  |          lj.pair_coeff.set(name, name,
                sigma=atom_type.sigma/ref_distance,
                epsilon=atom_type.epsilon/ref_energy)
hoomd_simulation.py:167  |          lj.pair_coeff.set(name, name,
                sigma=atom_type.sigma/ref_distance,
                epsilon=atom_type.epsilon/ref_energy)
hoomd_simulation.py:199  |          lj.pair_coeff.set(a1, a2, sigma=sigma, epsilon=epsilon)
hoomd_simulation.py:199  |          lj.pair_coeff.set(a1, a2, sigma=sigma, epsilon=epsilon)
hoomd_simulation.py:199  |          lj.pair_coeff.set(a1, a2, sigma=sigma, epsilon=epsilon)
hoomd_simulation.py:199  |          lj.pair_coeff.set(a1, a2, sigma=sigma, epsilon=epsilon)
hoomd_simulation.py:199  |          lj.pair_coeff.set(a1, a2, sigma=sigma, epsilon=epsilon)
hoomd_simulation.py:199  |          lj.pair_coeff.set(a1, a2, sigma=sigma, epsilon=epsilon)
hoomd_simulation.py:205  |      charged = hoomd.group.charged()
notice(2): Group "charged" created containing 6000 particles
hoomd_simulation.py:210  |          qq = hoomd.md.charge.pppm(charged, nl)
-----
You are using PPPM. Please cite the following:
* D N LeBard, B G Levine, S A Barr, A Jusufi, S Sanders, M L Klein, and A Z
  Panagiotopoulos. "Self-assembly of coarse-grained ionic surfactants
  accelerated by graphics processing units", Journal of Computational Physics 8
  (2012) 2385-2397
-----
hoomd_simulation.py:211  |          qq.set_params(Nx, Ny, Nz, order, r_cut)
Processing harmonic bonds
hoomd_simulation.py:266  |      harmonic_bond = hoomd.md.bond.harmonic()
hoomd_simulation.py:275  |              harmonic_bond.bond_coeff.set(name,
                k=2 * bond_type.k * ref_distance**2 / ref_energy,
                r0=bond_type.req / ref_distance)
hoomd_simulation.py:275  |              harmonic_bond.bond_coeff.set(name,
                k=2 * bond_type.k * ref_distance**2 / ref_energy,
                r0=bond_type.req / ref_distance)
Processing harmonic angles
hoomd_simulation.py:293  |      harmonic_angle = hoomd.md.angle.harmonic()
hoomd_simulation.py:295  |          harmonic_angle.angle_coeff.set(name,
                t0=np.deg2rad(angle_type.theteq),
                k=2 * angle_type.k / ref_energy)
HOOMD SimulationContext updated from ParmEd Structure
alex.py:093  |  nl = hoomd.md.nlist.cell()
alex.py:094  |  nl.reset_exclusions(['1-2', '1-3', '1-4'])
notice(2): -- Neighborlist exclusion statistics -- :
notice(2): Particles with 2 exclusions             : 6000
notice(2): Neighbors included by diameter          : no
notice(2): Neighbors excluded when in the same body: no
alex.py:096  |  all = hoomd.group.all()
alex.py:105  |  md.integrate.mode_standard(dt=0.002)
alex.py:106  |  nvt = md.integrate.nvt(group=all, kT=3.118, tau=1)
alex.py:107  |  hoomd.analyze.log(filename="analyze2.log",
                  quantities=['temperature', 'potential_energy','kinetic_energy', 'bond_harmonic_energy', 'pppm_energy', 'pair_lj_energy', 'angle_harmonic_energy','volume', 'pressure'],
                  period=100,
                  overwrite=True)
alex.py:111  |  dump = hoomd.dump.dcd('nvt.dcd', period = 100, overwrite = True)
alex.py:112  |  hoomd.run(1e5)
** starting run **
/home/arjunban/installs/mbuild/mbuild/compound.py:2410: UserWarning: Guessing that "<_CH3 pos=( 6.8756, 1.1424, 7.0081), 0 bonds, id: 140179774755448>" is element: "EP"
  atom, element))
/home/arjunban/.conda/envs/mosdef36/lib/python3.6/site-packages/foyer/forcefield.py:395: UserWarning: Non-atomistic element type detected. Creating custom element for _CH4
  'Creating custom element for {}'.format(element))
/home/arjunban/.conda/envs/mosdef36/lib/python3.6/site-packages/foyer/forcefield.py:395: UserWarning: Non-atomistic element type detected. Creating custom element for _CH3
  'Creating custom element for {}'.format(element))
/home/arjunban/.conda/envs/mosdef36/lib/python3.6/site-packages/foyer/forcefield.py:395: UserWarning: Non-atomistic element type detected. Creating custom element for _CH2
  'Creating custom element for {}'.format(element))
/home/arjunban/.conda/envs/mosdef36/lib/python3.6/site-packages/foyer/forcefield.py:395: UserWarning: Non-atomistic element type detected. Creating custom element for _HC
  'Creating custom element for {}'.format(element))
/home/arjunban/installs/mbuild/mbuild/utils/decorators.py:21: Warning: write_hoomdxml has breaking change. See PR#463 on github
  warn(printed_message, Warning)
*Warning*: charge.pppm: system is not neutral and unscreened interactions are calculated, the net charge is 0.00143051
*Warning*: charge.pppm: RMS error of 37.4012 is probably too high! 37.4004 37.4012
Time 00:00:10 | Step 428 / 100000 | TPS 42.7286 | ETA 00:38:50
Time 00:00:20 | Step 1101 / 100000 | TPS 67.2375 | ETA 00:24:30
Time 00:00:30 | Step 2238 / 100000 | TPS 113.678 | ETA 00:14:19
Time 00:00:40 | Step 3352 / 100000 | TPS 111.384 | ETA 00:14:27
Time 00:00:50 | Step 4280 / 100000 | TPS 92.7311 | ETA 00:17:12
Time 00:01:00 | Step 5065 / 100000 | TPS 78.4242 | ETA 00:20:10
Time 00:01:10 | Step 5924 / 100000 | TPS 85.8032 | ETA 00:18:16
Time 00:01:20 | Step 6754 / 100000 | TPS 82.9285 | ETA 00:18:44
Time 00:01:30 | Step 7548 / 100000 | TPS 79.3987 | ETA 00:19:24
Time 00:01:40 | Step 8344 / 100000 | TPS 79.5042 | ETA 00:19:12
Time 00:01:50 | Step 9168 / 100000 | TPS 82.3008 | ETA 00:18:23
Time 00:02:00 | Step 10013 / 100000 | TPS 84.4103 | ETA 00:17:46
Time 00:02:10 | Step 10836 / 100000 | TPS 82.2345 | ETA 00:18:04
Time 00:02:20 | Step 11635 / 100000 | TPS 79.8376 | ETA 00:18:26
Time 00:02:30 | Step 12422 / 100000 | TPS 78.6962 | ETA 00:18:32
Time 00:02:40 | Step 13201 / 100000 | TPS 77.5156 | ETA 00:18:39
Time 00:02:50 | Step 13961 / 100000 | TPS 75.8644 | ETA 00:18:54
Time 00:03:00 | Step 14701 / 100000 | TPS 73.8539 | ETA 00:19:14
Time 00:03:10 | Step 15415 / 100000 | TPS 71.2981 | ETA 00:19:46
Time 00:03:20 | Step 16126 / 100000 | TPS 71.0774 | ETA 00:19:40
Time 00:03:30 | Step 16832 / 100000 | TPS 70.5351 | ETA 00:19:39
Time 00:03:40 | Step 17511 / 100000 | TPS 67.81 | ETA 00:20:16
Time 00:03:50 | Step 18183 / 100000 | TPS 67.1398 | ETA 00:20:18
Time 00:04:00 | Step 18849 / 100000 | TPS 66.4637 | ETA 00:20:20
Time 00:04:10 | Step 19504 / 100000 | TPS 65.4872 | ETA 00:20:29
Time 00:04:20 | Step 20155 / 100000 | TPS 65.017 | ETA 00:20:28
Time 00:04:30 | Step 20796 / 100000 | TPS 64.0011 | ETA 00:20:37
Time 00:04:40 | Step 21415 / 100000 | TPS 61.7981 | ETA 00:21:11
Time 00:04:50 | Step 22035 / 100000 | TPS 61.9036 | ETA 00:20:59
Time 00:05:00 | Step 22651 / 100000 | TPS 61.5723 | ETA 00:20:56
Time 00:05:10 | Step 23270 / 100000 | TPS 61.8869 | ETA 00:20:39
Time 00:05:20 | Step 23894 / 100000 | TPS 62.3151 | ETA 00:20:21
Time 00:05:30 | Step 24518 / 100000 | TPS 62.3333 | ETA 00:20:10
Time 00:05:40 | Step 25136 / 100000 | TPS 61.7418 | ETA 00:20:12
Time 00:05:50 | Step 25752 / 100000 | TPS 61.5183 | ETA 00:20:06
Time 00:06:00 | Step 26359 / 100000 | TPS 60.636 | ETA 00:20:14
Time 00:06:10 | Step 26965 / 100000 | TPS 60.5084 | ETA 00:20:07
Time 00:06:20 | Step 27568 / 100000 | TPS 60.2736 | ETA 00:20:01
Time 00:06:30 | Step 28170 / 100000 | TPS 60.1605 | ETA 00:19:53
Time 00:06:40 | Step 28769 / 100000 | TPS 59.8977 | ETA 00:19:49
Time 00:06:50 | Step 29364 / 100000 | TPS 59.4871 | ETA 00:19:47
Time 00:07:00 | Step 29956 / 100000 | TPS 59.1853 | ETA 00:19:43
Time 00:07:10 | Step 30549 / 100000 | TPS 59.2726 | ETA 00:19:31
Time 00:07:20 | Step 31140 / 100000 | TPS 59.0792 | ETA 00:19:25
Time 00:07:30 | Step 31730 / 100000 | TPS 58.9507 | ETA 00:19:18
Time 00:07:40 | Step 32321 / 100000 | TPS 59.0946 | ETA 00:19:05
Time 00:07:50 | Step 32911 / 100000 | TPS 58.9251 | ETA 00:18:58
Time 00:08:00 | Step 33500 / 100000 | TPS 58.883 | ETA 00:18:49
Time 00:08:10 | Step 34091 / 100000 | TPS 59.0323 | ETA 00:18:36
Time 00:08:20 | Step 34679 / 100000 | TPS 58.7149 | ETA 00:18:32
Time 00:08:30 | Step 35264 / 100000 | TPS 58.3979 | ETA 00:18:28
Time 00:08:40 | Step 35843 / 100000 | TPS 57.8696 | ETA 00:18:28
Time 00:08:50 | Step 36411 / 100000 | TPS 56.7922 | ETA 00:18:39
Time 00:09:00 | Step 36961 / 100000 | TPS 54.9767 | ETA 00:19:06
Time 00:09:10 | Step 37500 / 100000 | TPS 53.8696 | ETA 00:19:20
Time 00:09:20 | Step 38047 / 100000 | TPS 54.6882 | ETA 00:18:52
Time 00:09:30 | Step 38606 / 100000 | TPS 55.8644 | ETA 00:18:18
Time 00:09:40 | Step 39160 / 100000 | TPS 55.362 | ETA 00:18:18
Time 00:09:50 | Step 39713 / 100000 | TPS 55.2945 | ETA 00:18:10
Time 00:10:00 | Step 40242 / 100000 | TPS 52.8498 | ETA 00:18:50
Time 00:10:11 | Step 40758 / 100000 | TPS 51.5328 | ETA 00:19:09
Time 00:10:21 | Step 41271 / 100000 | TPS 51.2305 | ETA 00:19:06
Time 00:10:31 | Step 41780 / 100000 | TPS 50.8566 | ETA 00:19:04
Time 00:10:41 | Step 42288 / 100000 | TPS 50.7885 | ETA 00:18:56
Time 00:10:51 | Step 42796 / 100000 | TPS 50.7165 | ETA 00:18:47
Time 00:11:01 | Step 43300 / 100000 | TPS 50.3386 | ETA 00:18:46
Time 00:11:11 | Step 43803 / 100000 | TPS 50.2184 | ETA 00:18:39
Time 00:11:21 | Step 44310 / 100000 | TPS 50.6889 | ETA 00:18:18
Time 00:11:31 | Step 44819 / 100000 | TPS 50.8475 | ETA 00:18:05
Time 00:11:41 | Step 45330 / 100000 | TPS 51.0154 | ETA 00:17:51
Time 00:11:51 | Step 45840 / 100000 | TPS 50.985 | ETA 00:17:42
Time 00:12:01 | Step 46346 / 100000 | TPS 50.5999 | ETA 00:17:40
Time 00:12:11 | Step 46851 / 100000 | TPS 50.406 | ETA 00:17:34
Time 00:12:21 | Step 47357 / 100000 | TPS 50.5605 | ETA 00:17:21
Time 00:12:31 | Step 47861 / 100000 | TPS 50.3251 | ETA 00:17:16
Time 00:12:41 | Step 48357 / 100000 | TPS 49.5943 | ETA 00:17:21
Time 00:12:51 | Step 48852 / 100000 | TPS 49.4592 | ETA 00:17:14
Time 00:13:01 | Step 49349 / 100000 | TPS 49.6374 | ETA 00:17:00
Time 00:13:11 | Step 49847 / 100000 | TPS 49.7356 | ETA 00:16:48
Time 00:13:21 | Step 50346 / 100000 | TPS 49.8677 | ETA 00:16:35
Time 00:13:31 | Step 50850 / 100000 | TPS 50.3326 | ETA 00:16:16
Time 00:13:41 | Step 51358 / 100000 | TPS 50.7161 | ETA 00:15:59
Time 00:13:51 | Step 51867 / 100000 | TPS 50.8114 | ETA 00:15:47
Time 00:14:01 | Step 52370 / 100000 | TPS 50.2296 | ETA 00:15:48
Time 00:14:11 | Step 52870 / 100000 | TPS 49.9497 | ETA 00:15:43
Time 00:14:21 | Step 53369 / 100000 | TPS 49.8474 | ETA 00:15:35
Time 00:14:31 | Step 53865 / 100000 | TPS 49.5512 | ETA 00:15:31
Time 00:14:41 | Step 54358 / 100000 | TPS 49.241 | ETA 00:15:26
Time 00:14:51 | Step 54852 / 100000 | TPS 49.3817 | ETA 00:15:14
Time 00:15:01 | Step 55346 / 100000 | TPS 49.3526 | ETA 00:15:04
Time 00:15:11 | Step 55846 / 100000 | TPS 49.9961 | ETA 00:14:43
Time 00:15:21 | Step 56349 / 100000 | TPS 50.2886 | ETA 00:14:28
Time 00:15:31 | Step 56849 / 100000 | TPS 49.916 | ETA 00:14:24
Time 00:15:41 | Step 57345 / 100000 | TPS 49.5626 | ETA 00:14:20
Time 00:15:51 | Step 57840 / 100000 | TPS 49.4158 | ETA 00:14:13
Time 00:16:01 | Step 58335 / 100000 | TPS 49.4589 | ETA 00:14:02
Time 00:16:11 | Step 58833 / 100000 | TPS 49.732 | ETA 00:13:47
Time 00:16:21 | Step 59334 / 100000 | TPS 50.0635 | ETA 00:13:32
Time 00:16:31 | Step 59832 / 100000 | TPS 49.7511 | ETA 00:13:27
Time 00:16:41 | Step 60330 / 100000 | TPS 49.7218 | ETA 00:13:17
Time 00:16:51 | Step 60826 / 100000 | TPS 49.5578 | ETA 00:13:10
Time 00:17:01 | Step 61322 / 100000 | TPS 49.5707 | ETA 00:13:00
Time 00:17:11 | Step 61816 / 100000 | TPS 49.3798 | ETA 00:12:53
Time 00:17:21 | Step 62308 / 100000 | TPS 49.1254 | ETA 00:12:47
Time 00:17:31 | Step 62801 / 100000 | TPS 49.2966 | ETA 00:12:34
Time 00:17:41 | Step 63295 / 100000 | TPS 49.3168 | ETA 00:12:24
Time 00:17:51 | Step 63784 / 100000 | TPS 48.8767 | ETA 00:12:20
Time 00:18:01 | Step 64276 / 100000 | TPS 49.1819 | ETA 00:12:06
Time 00:18:11 | Step 64766 / 100000 | TPS 48.9794 | ETA 00:11:59
Time 00:18:21 | Step 65257 / 100000 | TPS 49.0314 | ETA 00:11:48
Time 00:18:31 | Step 65750 / 100000 | TPS 49.2742 | ETA 00:11:35
Time 00:18:41 | Step 66241 / 100000 | TPS 49.0649 | ETA 00:11:28
Time 00:18:51 | Step 66731 / 100000 | TPS 48.9027 | ETA 00:11:20
Time 00:19:01 | Step 67219 / 100000 | TPS 48.7514 | ETA 00:11:12
Time 00:19:11 | Step 67705 / 100000 | TPS 48.5691 | ETA 00:11:04
Time 00:19:21 | Step 68190 / 100000 | TPS 48.4652 | ETA 00:10:56
Time 00:19:31 | Step 68678 / 100000 | TPS 48.7579 | ETA 00:10:42
Time 00:19:41 | Step 69164 / 100000 | TPS 48.5094 | ETA 00:10:35
Time 00:19:51 | Step 69649 / 100000 | TPS 48.4426 | ETA 00:10:26
Time 00:20:01 | Step 70134 / 100000 | TPS 48.4775 | ETA 00:10:16
Time 00:20:11 | Step 70618 / 100000 | TPS 48.3853 | ETA 00:10:07
Time 00:20:21 | Step 71103 / 100000 | TPS 48.4389 | ETA 00:09:56
Time 00:20:31 | Step 71592 / 100000 | TPS 48.8531 | ETA 00:09:41
Time 00:20:41 | Step 72078 / 100000 | TPS 48.5968 | ETA 00:09:34
Time 00:20:51 | Step 72565 / 100000 | TPS 48.6983 | ETA 00:09:23
Time 00:21:01 | Step 73050 / 100000 | TPS 48.4964 | ETA 00:09:15
Time 00:21:11 | Step 73535 / 100000 | TPS 48.4108 | ETA 00:09:06
Time 00:21:21 | Step 74019 / 100000 | TPS 48.3913 | ETA 00:08:56
Time 00:21:31 | Step 74502 / 100000 | TPS 48.2572 | ETA 00:08:48
Time 00:21:41 | Step 74987 / 100000 | TPS 48.4845 | ETA 00:08:35
Time 00:21:51 | Step 75470 / 100000 | TPS 48.2873 | ETA 00:08:28
Time 00:22:01 | Step 75954 / 100000 | TPS 48.3997 | ETA 00:08:16
Time 00:22:11 | Step 76441 / 100000 | TPS 48.6046 | ETA 00:08:04
Time 00:22:21 | Step 76927 / 100000 | TPS 48.5324 | ETA 00:07:55
Time 00:22:31 | Step 77411 / 100000 | TPS 48.3223 | ETA 00:07:47
Time 00:22:41 | Step 77897 / 100000 | TPS 48.5808 | ETA 00:07:34
Time 00:22:51 | Step 78382 / 100000 | TPS 48.4554 | ETA 00:07:26
Time 00:23:01 | Step 78868 / 100000 | TPS 48.5639 | ETA 00:07:15
Time 00:23:11 | Step 79353 / 100000 | TPS 48.4135 | ETA 00:07:06
Time 00:23:21 | Step 79837 / 100000 | TPS 48.3862 | ETA 00:06:56
Time 00:23:31 | Step 80322 / 100000 | TPS 48.4376 | ETA 00:06:46
Time 00:23:41 | Step 80806 / 100000 | TPS 48.3892 | ETA 00:06:36
Time 00:23:51 | Step 81292 / 100000 | TPS 48.5861 | ETA 00:06:25
Time 00:24:01 | Step 81775 / 100000 | TPS 48.2649 | ETA 00:06:17
Time 00:24:11 | Step 82256 / 100000 | TPS 48.0857 | ETA 00:06:09
Time 00:24:21 | Step 82735 / 100000 | TPS 47.8132 | ETA 00:06:01
Time 00:24:31 | Step 83216 / 100000 | TPS 48.0987 | ETA 00:05:48
Time 00:24:41 | Step 83701 / 100000 | TPS 48.4033 | ETA 00:05:36
Time 00:24:51 | Step 84189 / 100000 | TPS 48.7196 | ETA 00:05:24
Time 00:25:01 | Step 84677 / 100000 | TPS 48.7136 | ETA 00:05:14
Time 00:25:11 | Step 85165 / 100000 | TPS 48.7026 | ETA 00:05:04
Time 00:25:21 | Step 85654 / 100000 | TPS 48.899 | ETA 00:04:53
Time 00:25:31 | Step 86138 / 100000 | TPS 48.3514 | ETA 00:04:46
Time 00:25:41 | Step 86620 / 100000 | TPS 48.1872 | ETA 00:04:37
Time 00:25:51 | Step 87106 / 100000 | TPS 48.5117 | ETA 00:04:25
Time 00:26:01 | Step 87598 / 100000 | TPS 49.1397 | ETA 00:04:12
Time 00:26:11 | Step 88084 / 100000 | TPS 48.5151 | ETA 00:04:05
Time 00:26:21 | Step 88569 / 100000 | TPS 48.4069 | ETA 00:03:56
Time 00:26:31 | Step 89053 / 100000 | TPS 48.3075 | ETA 00:03:46
Time 00:26:41 | Step 89536 / 100000 | TPS 48.2662 | ETA 00:03:36
Time 00:26:51 | Step 90021 / 100000 | TPS 48.4523 | ETA 00:03:25
Time 00:27:01 | Step 90515 / 100000 | TPS 49.3947 | ETA 00:03:12
Time 00:27:11 | Step 91012 / 100000 | TPS 49.6089 | ETA 00:03:01
Time 00:27:22 | Step 91503 / 100000 | TPS 49.0239 | ETA 00:02:53
Time 00:27:32 | Step 91992 / 100000 | TPS 48.8924 | ETA 00:02:43
Time 00:27:42 | Step 92480 / 100000 | TPS 48.7498 | ETA 00:02:34
Time 00:27:52 | Step 92969 / 100000 | TPS 48.8664 | ETA 00:02:23
Time 00:28:02 | Step 93458 / 100000 | TPS 48.8477 | ETA 00:02:13
Time 00:28:12 | Step 93947 / 100000 | TPS 48.8492 | ETA 00:02:03
Time 00:28:22 | Step 94438 / 100000 | TPS 48.9999 | ETA 00:01:53
Time 00:28:32 | Step 94927 / 100000 | TPS 48.8108 | ETA 00:01:43
Time 00:28:42 | Step 95413 / 100000 | TPS 48.5503 | ETA 00:01:34
Time 00:28:52 | Step 95898 / 100000 | TPS 48.4166 | ETA 00:01:24
Time 00:29:02 | Step 96378 / 100000 | TPS 47.9447 | ETA 00:01:15
Time 00:29:12 | Step 96859 / 100000 | TPS 47.9456 | ETA 00:01:05
Time 00:29:22 | Step 97336 / 100000 | TPS 47.6548 | ETA 00:00:55
Time 00:29:32 | Step 97810 / 100000 | TPS 47.3787 | ETA 00:00:46
Time 00:29:42 | Step 98284 / 100000 | TPS 47.3247 | ETA 00:00:36
Time 00:29:52 | Step 98758 / 100000 | TPS 47.3823 | ETA 00:00:26
Time 00:30:02 | Step 99233 / 100000 | TPS 47.4877 | ETA 00:00:16
Time 00:30:12 | Step 99709 / 100000 | TPS 47.5727 | ETA 00:00:06
Time 00:30:18 | Step 100000 / 100000 | TPS 47.794 | ETA 00:00:00
Average TPS: 55.0101
---------
-- Neighborlist stats:
3788 normal updates / 334 forced updates / 0 dangerous updates
n_neigh_min: 0 / n_neigh_max: 706 / n_neigh_avg: 474.558
shortest rebuild period: 1
-- Cell list stats:
Dimension: 5, 5, 5
n_min    : 0 / n_max: 171 / n_avg: 48
-- Neighborlist stats:
0 normal updates / 0 forced updates / 0 dangerous updates
n_neigh_min: 0 / n_neigh_max: 0 / n_neigh_avg: 0
shortest rebuild period: 100
-- Cell list stats:
Dimension: 0, 0, 0
** run complete **
alex.py:113  |  dump.disable()
SWITCHING TO NPT
alex.py:115  |  nvt.disable()
alex.py:116  |  npt = md.integrate.npt(group=all, kT=3.118, tau=1, P=0.62, tauP=10)
alex.py:117  |  hoomd.analyze.log(filename="analyze.log",
                  quantities=['temperature', 'potential_energy','kinetic_energy', 'bond_harmonic_energy', 'pppm_energy', 'pair_lj_energy', 'angle_harmonic_energy','volume','pressure'],
                  period=100,
                  overwrite=True)
alex.py:121  |  hoomd.dump.dcd('npt.dcd', period = 100, overwrite = True)
alex.py:122  |  hoomd.run(1e5)
** starting run **
Time 00:30:28 | Step 100346 / 200000 | TPS 34.5857 | ETA 00:48:01
Time 00:30:38 | Step 100734 / 200000 | TPS 38.7796 | ETA 00:42:39
Time 00:30:48 | Step 101075 / 200000 | TPS 33.9802 | ETA 00:48:31
Time 00:30:58 | Step 101454 / 200000 | TPS 37.8533 | ETA 00:43:23
Time 00:31:08 | Step 101906 / 200000 | TPS 45.1683 | ETA 00:36:11
Time 00:31:18 | Step 102335 / 200000 | TPS 42.8534 | ETA 00:37:59
Time 00:31:28 | Step 102776 / 200000 | TPS 44.0165 | ETA 00:36:48
Time 00:31:38 | Step 103196 / 200000 | TPS 41.974 | ETA 00:38:26
Time 00:31:48 | Step 103615 / 200000 | TPS 41.8126 | ETA 00:38:25
Time 00:31:58 | Step 104034 / 200000 | TPS 41.8349 | ETA 00:38:13
Time 00:32:08 | Step 104456 / 200000 | TPS 42.1068 | ETA 00:37:49
Time 00:32:18 | Step 104879 / 200000 | TPS 42.2317 | ETA 00:37:32
Time 00:32:28 | Step 105300 / 200000 | TPS 41.9958 | ETA 00:37:34
Time 00:32:38 | Step 105718 / 200000 | TPS 41.7339 | ETA 00:37:39
Time 00:32:48 | Step 106133 / 200000 | TPS 41.4272 | ETA 00:37:45
Time 00:32:58 | Step 106552 / 200000 | TPS 41.8854 | ETA 00:37:11
Time 00:33:08 | Step 106973 / 200000 | TPS 42.0817 | ETA 00:36:50
Time 00:33:18 | Step 107395 / 200000 | TPS 42.1729 | ETA 00:36:35
Time 00:33:28 | Step 107811 / 200000 | TPS 41.5361 | ETA 00:36:59
Time 00:33:38 | Step 108224 / 200000 | TPS 41.2726 | ETA 00:37:03
Time 00:33:48 | Step 108638 / 200000 | TPS 41.3922 | ETA 00:36:47
Time 00:33:58 | Step 109052 / 200000 | TPS 41.3409 | ETA 00:36:39
Time 00:34:08 | Step 109466 / 200000 | TPS 41.3986 | ETA 00:36:26
Time 00:34:18 | Step 109878 / 200000 | TPS 41.1593 | ETA 00:36:29
Time 00:34:28 | Step 110287 / 200000 | TPS 40.8359 | ETA 00:36:36
Time 00:34:38 | Step 110694 / 200000 | TPS 40.6249 | ETA 00:36:38
Time 00:34:48 | Step 111099 / 200000 | TPS 40.4052 | ETA 00:36:40
Time 00:34:58 | Step 111503 / 200000 | TPS 40.3586 | ETA 00:36:32
Time 00:35:08 | Step 111901 / 200000 | TPS 39.7544 | ETA 00:36:56
Time 00:35:18 | Step 112299 / 200000 | TPS 39.7601 | ETA 00:36:45
Time 00:35:28 | Step 112691 / 200000 | TPS 39.1285 | ETA 00:37:11
Time 00:35:38 | Step 113082 / 200000 | TPS 39.0166 | ETA 00:37:07
Time 00:35:48 | Step 113466 / 200000 | TPS 38.3943 | ETA 00:37:33
Time 00:35:58 | Step 113848 / 200000 | TPS 38.135 | ETA 00:37:39
Time 00:36:08 | Step 114227 / 200000 | TPS 37.8784 | ETA 00:37:44
Time 00:36:18 | Step 114584 / 200000 | TPS 35.6895 | ETA 00:39:53
Time 00:36:28 | Step 114924 / 200000 | TPS 33.997 | ETA 00:41:42
Time 00:36:38 | Step 115266 / 200000 | TPS 34.1755 | ETA 00:41:19
Time 00:36:48 | Step 115609 / 200000 | TPS 34.2441 | ETA 00:41:04
Time 00:36:58 | Step 115948 / 200000 | TPS 33.8326 | ETA 00:41:24
Time 00:37:08 | Step 116282 / 200000 | TPS 33.3082 | ETA 00:41:53
Time 00:37:18 | Step 116608 / 200000 | TPS 32.5346 | ETA 00:42:43
Time 00:37:28 | Step 116931 / 200000 | TPS 32.2112 | ETA 00:42:58
Time 00:37:38 | Step 117241 / 200000 | TPS 30.934 | ETA 00:44:35
Time 00:37:48 | Step 117536 / 200000 | TPS 29.4227 | ETA 00:46:42
Time 00:37:58 | Step 117828 / 200000 | TPS 29.1321 | ETA 00:47:00
Time 00:38:09 | Step 118116 / 200000 | TPS 28.7345 | ETA 00:47:29
Time 00:38:19 | Step 118405 / 200000 | TPS 28.8891 | ETA 00:47:04
Time 00:38:29 | Step 118700 / 200000 | TPS 29.4163 | ETA 00:46:03
Time 00:38:39 | Step 118993 / 200000 | TPS 29.2794 | ETA 00:46:06
Time 00:38:49 | Step 119286 / 200000 | TPS 29.2739 | ETA 00:45:57
Time 00:38:59 | Step 119578 / 200000 | TPS 29.1954 | ETA 00:45:54
Time 00:39:09 | Step 119872 / 200000 | TPS 29.3098 | ETA 00:45:33
Time 00:39:19 | Step 120174 / 200000 | TPS 30.1363 | ETA 00:44:08
Time 00:39:29 | Step 120486 / 200000 | TPS 31.14 | ETA 00:42:33
Time 00:39:39 | Step 120801 / 200000 | TPS 31.4002 | ETA 00:42:02
Time 00:39:49 | Step 121118 / 200000 | TPS 31.6436 | ETA 00:41:32
Time 00:39:59 | Step 121439 / 200000 | TPS 32.0496 | ETA 00:40:51
Time 00:40:09 | Step 121764 / 200000 | TPS 32.436 | ETA 00:40:12
Time 00:40:19 | Step 122093 / 200000 | TPS 32.8985 | ETA 00:39:28
Time 00:40:29 | Step 122426 / 200000 | TPS 33.2516 | ETA 00:38:52
Time 00:40:39 | Step 122763 / 200000 | TPS 33.651 | ETA 00:38:15
Time 00:40:49 | Step 123101 / 200000 | TPS 33.7408 | ETA 00:37:59
Time 00:40:59 | Step 123437 / 200000 | TPS 33.5229 | ETA 00:38:03
Time 00:41:09 | Step 123769 / 200000 | TPS 33.1217 | ETA 00:38:21
Time 00:41:19 | Step 124100 / 200000 | TPS 33.0685 | ETA 00:38:15
Time 00:41:29 | Step 124432 / 200000 | TPS 33.1881 | ETA 00:37:56
Time 00:41:39 | Step 124765 / 200000 | TPS 33.2157 | ETA 00:37:45
Time 00:41:49 | Step 125096 / 200000 | TPS 33.0899 | ETA 00:37:43
Time 00:41:59 | Step 125426 / 200000 | TPS 32.9423 | ETA 00:37:43
Time 00:42:09 | Step 125755 / 200000 | TPS 32.8372 | ETA 00:37:41
Time 00:42:19 | Step 126081 / 200000 | TPS 32.5321 | ETA 00:37:52
Time 00:42:29 | Step 126406 / 200000 | TPS 32.4215 | ETA 00:37:49
Time 00:42:39 | Step 126735 / 200000 | TPS 32.8608 | ETA 00:37:09
Time 00:42:49 | Step 127065 / 200000 | TPS 32.9562 | ETA 00:36:53
Time 00:42:59 | Step 127392 / 200000 | TPS 32.6356 | ETA 00:37:04
Time 00:43:09 | Step 127717 / 200000 | TPS 32.4039 | ETA 00:37:10
Time 00:43:19 | Step 128038 / 200000 | TPS 32.0584 | ETA 00:37:24
Time 00:43:29 | Step 128358 / 200000 | TPS 31.9128 | ETA 00:37:24
Time 00:43:39 | Step 128675 / 200000 | TPS 31.6227 | ETA 00:37:35
Time 00:43:49 | Step 128990 / 200000 | TPS 31.4998 | ETA 00:37:34
Time 00:43:59 | Step 129301 / 200000 | TPS 31.0125 | ETA 00:37:59
Time 00:44:09 | Step 129608 / 200000 | TPS 30.6506 | ETA 00:38:16
Time 00:44:19 | Step 129906 / 200000 | TPS 29.7113 | ETA 00:39:19
Time 00:44:29 | Step 130205 / 200000 | TPS 29.8367 | ETA 00:38:59
Time 00:44:39 | Step 130513 / 200000 | TPS 30.7688 | ETA 00:37:38
Time 00:44:49 | Step 130825 / 200000 | TPS 31.1736 | ETA 00:36:59
Time 00:44:59 | Step 131141 / 200000 | TPS 31.5132 | ETA 00:36:25
Time 00:45:09 | Step 131460 / 200000 | TPS 31.8485 | ETA 00:35:52
Time 00:45:19 | Step 131780 / 200000 | TPS 31.9556 | ETA 00:35:34
Time 00:45:29 | Step 132102 / 200000 | TPS 32.1772 | ETA 00:35:10
Time 00:45:39 | Step 132426 / 200000 | TPS 32.3037 | ETA 00:34:51
Time 00:45:49 | Step 132751 / 200000 | TPS 32.4683 | ETA 00:34:31
Time 00:45:59 | Step 133078 / 200000 | TPS 32.6747 | ETA 00:34:08
Time 00:46:09 | Step 133405 / 200000 | TPS 32.6384 | ETA 00:34:00
Time 00:46:19 | Step 133733 / 200000 | TPS 32.7711 | ETA 00:33:42
Time 00:46:29 | Step 134062 / 200000 | TPS 32.8686 | ETA 00:33:26
Time 00:46:39 | Step 134393 / 200000 | TPS 33.0531 | ETA 00:33:04
Time 00:46:49 | Step 134723 / 200000 | TPS 32.9625 | ETA 00:33:00
Time 00:46:59 | Step 135055 / 200000 | TPS 33.1259 | ETA 00:32:40
Time 00:47:09 | Step 135386 / 200000 | TPS 33.0643 | ETA 00:32:34
Time 00:47:19 | Step 135716 / 200000 | TPS 32.9078 | ETA 00:32:33
Time 00:47:29 | Step 136046 / 200000 | TPS 32.9385 | ETA 00:32:21
Time 00:47:39 | Step 136375 / 200000 | TPS 32.8249 | ETA 00:32:18
Time 00:47:49 | Step 136703 / 200000 | TPS 32.732 | ETA 00:32:13
Time 00:48:00 | Step 137030 / 200000 | TPS 32.6118 | ETA 00:32:10
Time 00:48:10 | Step 137356 / 200000 | TPS 32.5445 | ETA 00:32:04
Time 00:48:20 | Step 137680 / 200000 | TPS 32.3916 | ETA 00:32:03
Time 00:48:30 | Step 138002 / 200000 | TPS 32.1568 | ETA 00:32:07
Time 00:48:40 | Step 138323 / 200000 | TPS 32.0766 | ETA 00:32:02
Time 00:48:50 | Step 138645 / 200000 | TPS 32.1405 | ETA 00:31:48
Time 00:49:00 | Step 138967 / 200000 | TPS 32.1197 | ETA 00:31:40
Time 00:49:10 | Step 139287 / 200000 | TPS 31.9984 | ETA 00:31:37
Time 00:49:20 | Step 139607 / 200000 | TPS 31.9842 | ETA 00:31:28
Time 00:49:30 | Step 139928 / 200000 | TPS 32.0056 | ETA 00:31:16
Time 00:49:40 | Step 140248 / 200000 | TPS 31.9831 | ETA 00:31:08
Time 00:49:50 | Step 140566 / 200000 | TPS 31.762 | ETA 00:31:11
Time 00:50:00 | Step 140887 / 200000 | TPS 32.0138 | ETA 00:30:46
Time 00:50:10 | Step 141205 / 200000 | TPS 31.7092 | ETA 00:30:54
Time 00:50:20 | Step 141524 / 200000 | TPS 31.808 | ETA 00:30:38
Time 00:50:30 | Step 141843 / 200000 | TPS 31.803 | ETA 00:30:28
Time 00:50:40 | Step 142163 / 200000 | TPS 31.9212 | ETA 00:30:11
Time 00:50:50 | Step 142481 / 200000 | TPS 31.7981 | ETA 00:30:08
Time 00:51:00 | Step 142800 / 200000 | TPS 31.8386 | ETA 00:29:56
Time 00:51:10 | Step 143118 / 200000 | TPS 31.7813 | ETA 00:29:49
Time 00:51:20 | Step 143438 / 200000 | TPS 31.9128 | ETA 00:29:32
Time 00:51:30 | Step 143757 / 200000 | TPS 31.8968 | ETA 00:29:23
Time 00:51:40 | Step 144077 / 200000 | TPS 31.9765 | ETA 00:29:08
Time 00:51:50 | Step 144397 / 200000 | TPS 31.9355 | ETA 00:29:01
Time 00:52:00 | Step 144717 / 200000 | TPS 31.9667 | ETA 00:28:49
Time 00:52:10 | Step 145038 / 200000 | TPS 32.0803 | ETA 00:28:33
Time 00:52:20 | Step 145359 / 200000 | TPS 32.0745 | ETA 00:28:23
Time 00:52:30 | Step 145681 / 200000 | TPS 32.1114 | ETA 00:28:11
Time 00:52:40 | Step 146003 / 200000 | TPS 32.1147 | ETA 00:28:01
Time 00:52:50 | Step 146325 / 200000 | TPS 32.1734 | ETA 00:27:48
Time 00:53:00 | Step 146647 / 200000 | TPS 32.1242 | ETA 00:27:40
Time 00:53:10 | Step 146970 / 200000 | TPS 32.205 | ETA 00:27:26
Time 00:53:20 | Step 147293 / 200000 | TPS 32.1427 | ETA 00:27:19
Time 00:53:30 | Step 147616 / 200000 | TPS 32.2538 | ETA 00:27:04
Time 00:53:40 | Step 147939 / 200000 | TPS 32.2055 | ETA 00:26:56
Time 00:53:50 | Step 148263 / 200000 | TPS 32.3244 | ETA 00:26:40
Time 00:54:00 | Step 148585 / 200000 | TPS 32.1372 | ETA 00:26:39
Time 00:54:10 | Step 148907 / 200000 | TPS 32.1556 | ETA 00:26:28
Time 00:54:20 | Step 149229 / 200000 | TPS 32.1227 | ETA 00:26:20
Time 00:54:30 | Step 149551 / 200000 | TPS 32.1264 | ETA 00:26:10
Time 00:54:40 | Step 149870 / 200000 | TPS 31.8821 | ETA 00:26:12
Time 00:54:50 | Step 150190 / 200000 | TPS 31.9982 | ETA 00:25:56
Time 00:55:00 | Step 150509 / 200000 | TPS 31.8931 | ETA 00:25:51
Time 00:55:10 | Step 150828 / 200000 | TPS 31.8156 | ETA 00:25:45
Time 00:55:20 | Step 151149 / 200000 | TPS 32.0119 | ETA 00:25:26
Time 00:55:30 | Step 151469 / 200000 | TPS 31.9389 | ETA 00:25:19
Time 00:55:40 | Step 151789 / 200000 | TPS 31.9554 | ETA 00:25:08
Time 00:55:50 | Step 152108 / 200000 | TPS 31.8489 | ETA 00:25:03
Time 00:56:00 | Step 152428 / 200000 | TPS 31.9542 | ETA 00:24:48
Time 00:56:10 | Step 152748 / 200000 | TPS 31.8792 | ETA 00:24:42
Time 00:56:20 | Step 153068 / 200000 | TPS 31.9687 | ETA 00:24:28
Time 00:56:30 | Step 153387 / 200000 | TPS 31.8541 | ETA 00:24:23
Time 00:56:40 | Step 153706 / 200000 | TPS 31.8149 | ETA 00:24:15
Time 00:56:50 | Step 154026 / 200000 | TPS 31.9944 | ETA 00:23:56
Time 00:57:00 | Step 154345 / 200000 | TPS 31.8422 | ETA 00:23:53
Time 00:57:10 | Step 154665 / 200000 | TPS 31.9 | ETA 00:23:41
Time 00:57:20 | Step 154985 / 200000 | TPS 31.9433 | ETA 00:23:29
Time 00:57:30 | Step 155303 / 200000 | TPS 31.7932 | ETA 00:23:25
Time 00:57:41 | Step 155623 / 200000 | TPS 31.9261 | ETA 00:23:09
Time 00:57:51 | Step 155942 / 200000 | TPS 31.8178 | ETA 00:23:04
Time 00:58:01 | Step 156261 / 200000 | TPS 31.8552 | ETA 00:22:53
Time 00:58:11 | Step 156581 / 200000 | TPS 31.9552 | ETA 00:22:38
Time 00:58:21 | Step 156901 / 200000 | TPS 31.927 | ETA 00:22:29
Time 00:58:31 | Step 157222 / 200000 | TPS 32.0745 | ETA 00:22:13
Time 00:58:41 | Step 157542 / 200000 | TPS 31.9773 | ETA 00:22:07
Time 00:58:51 | Step 157862 / 200000 | TPS 31.9907 | ETA 00:21:57
Time 00:59:01 | Step 158182 / 200000 | TPS 31.9552 | ETA 00:21:48
Time 00:59:11 | Step 158501 / 200000 | TPS 31.846 | ETA 00:21:43
Time 00:59:21 | Step 158821 / 200000 | TPS 31.913 | ETA 00:21:30
Time 00:59:31 | Step 159139 / 200000 | TPS 31.795 | ETA 00:21:25
Time 00:59:41 | Step 159457 / 200000 | TPS 31.7722 | ETA 00:21:16
Time 00:59:51 | Step 159774 / 200000 | TPS 31.6144 | ETA 00:21:12
Time 01:00:01 | Step 160093 / 200000 | TPS 31.8157 | ETA 00:20:54
Time 01:00:11 | Step 160408 / 200000 | TPS 31.4598 | ETA 00:20:58
Time 01:00:21 | Step 160725 / 200000 | TPS 31.6308 | ETA 00:20:41
Time 01:00:31 | Step 161042 / 200000 | TPS 31.6229 | ETA 00:20:31
Time 01:00:41 | Step 161360 / 200000 | TPS 31.7068 | ETA 00:20:18
Time 01:00:51 | Step 161677 / 200000 | TPS 31.6904 | ETA 00:20:09
Time 01:01:01 | Step 161995 / 200000 | TPS 31.7256 | ETA 00:19:57
Time 01:01:11 | Step 162313 / 200000 | TPS 31.7317 | ETA 00:19:47
Time 01:01:21 | Step 162633 / 200000 | TPS 31.9248 | ETA 00:19:30
Time 01:01:31 | Step 162952 / 200000 | TPS 31.8435 | ETA 00:19:23
Time 01:01:41 | Step 163272 / 200000 | TPS 31.9465 | ETA 00:19:09
Time 01:01:51 | Step 163593 / 200000 | TPS 32.0257 | ETA 00:18:56
Time 01:02:01 | Step 163913 / 200000 | TPS 31.9427 | ETA 00:18:49
Time 01:02:11 | Step 164234 / 200000 | TPS 32.0683 | ETA 00:18:35
Time 01:02:21 | Step 164556 / 200000 | TPS 32.1409 | ETA 00:18:22
Time 01:02:31 | Step 164878 / 200000 | TPS 32.1613 | ETA 00:18:12
Time 01:02:41 | Step 165199 / 200000 | TPS 32.0941 | ETA 00:18:04
Time 01:02:51 | Step 165521 / 200000 | TPS 32.1234 | ETA 00:17:53
Time 01:03:01 | Step 165843 / 200000 | TPS 32.1722 | ETA 00:17:41
Time 01:03:11 | Step 166164 / 200000 | TPS 32.0864 | ETA 00:17:34
Time 01:03:21 | Step 166485 / 200000 | TPS 32.0886 | ETA 00:17:24
Time 01:03:31 | Step 166806 / 200000 | TPS 32.0663 | ETA 00:17:15
Time 01:03:41 | Step 167127 / 200000 | TPS 32.0711 | ETA 00:17:05
Time 01:03:51 | Step 167449 / 200000 | TPS 32.1236 | ETA 00:16:53
Time 01:04:01 | Step 167770 / 200000 | TPS 32.0714 | ETA 00:16:44
Time 01:04:11 | Step 168090 / 200000 | TPS 31.9786 | ETA 00:16:37
Time 01:04:21 | Step 168409 / 200000 | TPS 31.8238 | ETA 00:16:32
Time 01:04:31 | Step 168728 / 200000 | TPS 31.8887 | ETA 00:16:20
Time 01:04:41 | Step 169045 / 200000 | TPS 31.6673 | ETA 00:16:17
Time 01:04:51 | Step 169363 / 200000 | TPS 31.7638 | ETA 00:16:04
Time 01:05:01 | Step 169679 / 200000 | TPS 31.531 | ETA 00:16:01
Time 01:05:11 | Step 169995 / 200000 | TPS 31.5272 | ETA 00:15:51
Time 01:05:21 | Step 170310 / 200000 | TPS 31.4473 | ETA 00:15:44
Time 01:05:31 | Step 170626 / 200000 | TPS 31.5696 | ETA 00:15:30
Time 01:05:41 | Step 170944 / 200000 | TPS 31.7319 | ETA 00:15:15
Time 01:05:51 | Step 171261 / 200000 | TPS 31.6911 | ETA 00:15:06
Time 01:06:01 | Step 171578 / 200000 | TPS 31.6542 | ETA 00:14:57
Time 01:06:11 | Step 171897 / 200000 | TPS 31.8537 | ETA 00:14:42
Time 01:06:21 | Step 172214 / 200000 | TPS 31.6986 | ETA 00:14:36
Time 01:06:31 | Step 172533 / 200000 | TPS 31.8656 | ETA 00:14:21
Time 01:06:41 | Step 172851 / 200000 | TPS 31.7748 | ETA 00:14:14
Time 01:06:51 | Step 173170 / 200000 | TPS 31.8123 | ETA 00:14:03
Time 01:07:01 | Step 173489 / 200000 | TPS 31.8849 | ETA 00:13:51
Time 01:07:11 | Step 173808 / 200000 | TPS 31.8899 | ETA 00:13:41
Time 01:07:21 | Step 174127 / 200000 | TPS 31.8356 | ETA 00:13:32
Time 01:07:31 | Step 174446 / 200000 | TPS 31.849 | ETA 00:13:22
Time 01:07:41 | Step 174764 / 200000 | TPS 31.7402 | ETA 00:13:15
Time 01:07:51 | Step 175082 / 200000 | TPS 31.7988 | ETA 00:13:03
Time 01:08:01 | Step 175401 / 200000 | TPS 31.8066 | ETA 00:12:53
Time 01:08:11 | Step 175719 / 200000 | TPS 31.7974 | ETA 00:12:43
Time 01:08:21 | Step 176036 / 200000 | TPS 31.6471 | ETA 00:12:37
Time 01:08:31 | Step 176352 / 200000 | TPS 31.5932 | ETA 00:12:28
Time 01:08:41 | Step 176671 / 200000 | TPS 31.8218 | ETA 00:12:13
Time 01:08:51 | Step 176988 / 200000 | TPS 31.6693 | ETA 00:12:06
Time 01:09:01 | Step 177304 / 200000 | TPS 31.568 | ETA 00:11:58
Time 01:09:12 | Step 177621 / 200000 | TPS 31.6072 | ETA 00:11:48
Time 01:09:22 | Step 177937 / 200000 | TPS 31.575 | ETA 00:11:38
Time 01:09:32 | Step 178253 / 200000 | TPS 31.5997 | ETA 00:11:28
Time 01:09:42 | Step 178571 / 200000 | TPS 31.7309 | ETA 00:11:15
Time 01:09:52 | Step 178888 / 200000 | TPS 31.6884 | ETA 00:11:06
Time 01:10:02 | Step 179204 / 200000 | TPS 31.5933 | ETA 00:10:58
Time 01:10:12 | Step 179518 / 200000 | TPS 31.3687 | ETA 00:10:52
Time 01:10:22 | Step 179832 / 200000 | TPS 31.3367 | ETA 00:10:43
Time 01:10:32 | Step 180147 / 200000 | TPS 31.4956 | ETA 00:10:30
Time 01:10:42 | Step 180463 / 200000 | TPS 31.5874 | ETA 00:10:18
Time 01:10:52 | Step 180781 / 200000 | TPS 31.709 | ETA 00:10:06
Time 01:11:02 | Step 181099 / 200000 | TPS 31.7827 | ETA 00:09:54
Time 01:11:12 | Step 181417 / 200000 | TPS 31.7854 | ETA 00:09:44
Time 01:11:22 | Step 181735 / 200000 | TPS 31.7708 | ETA 00:09:34
Time 01:11:32 | Step 182054 / 200000 | TPS 31.8258 | ETA 00:09:23
Time 01:11:42 | Step 182372 / 200000 | TPS 31.7977 | ETA 00:09:14
Time 01:11:52 | Step 182690 / 200000 | TPS 31.7832 | ETA 00:09:04
Time 01:12:02 | Step 183008 / 200000 | TPS 31.7983 | ETA 00:08:54
Time 01:12:12 | Step 183328 / 200000 | TPS 31.9353 | ETA 00:08:42
Time 01:12:22 | Step 183647 / 200000 | TPS 31.8612 | ETA 00:08:33
Time 01:12:32 | Step 183967 / 200000 | TPS 31.902 | ETA 00:08:22
Time 01:12:42 | Step 184288 / 200000 | TPS 32.0461 | ETA 00:08:10
Time 01:12:52 | Step 184607 / 200000 | TPS 31.8259 | ETA 00:08:03
Time 01:13:02 | Step 184926 / 200000 | TPS 31.8913 | ETA 00:07:52
Time 01:13:12 | Step 185245 / 200000 | TPS 31.8779 | ETA 00:07:42
Time 01:13:22 | Step 185565 / 200000 | TPS 31.9324 | ETA 00:07:32
Time 01:13:32 | Step 185884 / 200000 | TPS 31.872 | ETA 00:07:22
Time 01:13:42 | Step 186204 / 200000 | TPS 31.905 | ETA 00:07:12
Time 01:13:52 | Step 186523 / 200000 | TPS 31.8388 | ETA 00:07:03
Time 01:14:02 | Step 186841 / 200000 | TPS 31.7498 | ETA 00:06:54
Time 01:14:12 | Step 187157 / 200000 | TPS 31.5309 | ETA 00:06:47
Time 01:14:22 | Step 187474 / 200000 | TPS 31.617 | ETA 00:06:36
Time 01:14:32 | Step 187790 / 200000 | TPS 31.565 | ETA 00:06:26
Time 01:14:42 | Step 188105 / 200000 | TPS 31.4972 | ETA 00:06:17
Time 01:14:52 | Step 188421 / 200000 | TPS 31.533 | ETA 00:06:07
Time 01:15:02 | Step 188737 / 200000 | TPS 31.4495 | ETA 00:05:58
Time 01:15:12 | Step 189053 / 200000 | TPS 31.5993 | ETA 00:05:46
Time 01:15:22 | Step 189369 / 200000 | TPS 31.5152 | ETA 00:05:37
Time 01:15:32 | Step 189684 / 200000 | TPS 31.4958 | ETA 00:05:27
Time 01:15:42 | Step 189999 / 200000 | TPS 31.4912 | ETA 00:05:17
Time 01:15:52 | Step 190314 / 200000 | TPS 31.4438 | ETA 00:05:08
Time 01:16:02 | Step 190630 / 200000 | TPS 31.5121 | ETA 00:04:57
Time 01:16:12 | Step 190947 / 200000 | TPS 31.6392 | ETA 00:04:46
Time 01:16:22 | Step 191264 / 200000 | TPS 31.626 | ETA 00:04:36
Time 01:16:32 | Step 191582 / 200000 | TPS 31.7275 | ETA 00:04:25
Time 01:16:42 | Step 191901 / 200000 | TPS 31.8883 | ETA 00:04:13
Time 01:16:52 | Step 192220 / 200000 | TPS 31.8724 | ETA 00:04:04
Time 01:17:02 | Step 192540 / 200000 | TPS 31.97 | ETA 00:03:53
Time 01:17:12 | Step 192861 / 200000 | TPS 32.0278 | ETA 00:03:42
Time 01:17:22 | Step 193182 / 200000 | TPS 32.0549 | ETA 00:03:32
Time 01:17:32 | Step 193502 / 200000 | TPS 31.9551 | ETA 00:03:23
Time 01:17:42 | Step 193823 / 200000 | TPS 32.0509 | ETA 00:03:12
Time 01:17:52 | Step 194144 / 200000 | TPS 32.0437 | ETA 00:03:02
Time 01:18:02 | Step 194465 / 200000 | TPS 32.0406 | ETA 00:02:52
Time 01:18:12 | Step 194785 / 200000 | TPS 31.9697 | ETA 00:02:43
Time 01:18:22 | Step 195104 / 200000 | TPS 31.8897 | ETA 00:02:33
Time 01:18:32 | Step 195423 / 200000 | TPS 31.884 | ETA 00:02:23
Time 01:18:42 | Step 195742 / 200000 | TPS 31.8268 | ETA 00:02:13
Time 01:18:52 | Step 196061 / 200000 | TPS 31.893 | ETA 00:02:03
Time 01:19:02 | Step 196377 / 200000 | TPS 31.5511 | ETA 00:01:54
Time 01:19:12 | Step 196694 / 200000 | TPS 31.6083 | ETA 00:01:44
Time 01:19:22 | Step 197010 / 200000 | TPS 31.5994 | ETA 00:01:34
Time 01:19:32 | Step 197325 / 200000 | TPS 31.4954 | ETA 00:01:24
Time 01:19:42 | Step 197640 / 200000 | TPS 31.4835 | ETA 00:01:14
Time 01:19:52 | Step 197955 / 200000 | TPS 31.4181 | ETA 00:01:05
Time 01:20:02 | Step 198270 / 200000 | TPS 31.4328 | ETA 00:00:55
Time 01:20:12 | Step 198584 / 200000 | TPS 31.3897 | ETA 00:00:45
Time 01:20:22 | Step 198899 / 200000 | TPS 31.4767 | ETA 00:00:34
Time 01:20:32 | Step 199214 / 200000 | TPS 31.4706 | ETA 00:00:24
Time 01:20:42 | Step 199530 / 200000 | TPS 31.5985 | ETA 00:00:14
Time 01:20:52 | Step 199847 / 200000 | TPS 31.6843 | ETA 00:00:04
Time 01:20:57 | Step 200000 / 200000 | TPS 31.7391 | ETA 00:00:00
Average TPS: 32.9011
---------
-- Neighborlist stats:
2760 normal updates / 334 forced updates / 0 dangerous updates
n_neigh_min: 666 / n_neigh_max: 775 / n_neigh_avg: 721.046
shortest rebuild period: 17
-- Cell list stats:
Dimension: 3, 3, 3
n_min    : 196 / n_max: 242 / n_avg: 222.222
-- Neighborlist stats:
0 normal updates / 0 forced updates / 0 dangerous updates
n_neigh_min: 0 / n_neigh_max: 0 / n_neigh_avg: 0
shortest rebuild period: 100
-- Cell list stats:
Dimension: 0, 0, 0
** run complete **
